

# Styles
	units        metal
	atom_style   atomic
	pair_style   eam/fs

# Neighbour list
	neighbor        2.0 bin
	neigh_modify    check yes


# Boundary conditions
	boundary p p p


# ----------------- Atom Definition Section -----------------

read_data "W-Mo_2000K.data"
Reading data file ...
  orthogonal box = (-0.28465544 -0.23864789 -0.54550599) to (31.934655 31.888648 79.670506)
  4 by 2 by 5 MPI processor grid
  reading atom labelmap ...
  reading atoms ...
  5000 atoms
  reading velocities ...
  5000 velocities
  read_data CPU = 0.045 seconds

# ----------------- Settings Section -----------------

include "test.in.settings"
# ----- SETTINGS -----
# Forcefield
	pair_coeff * * W-Mo.eam.fs W Mo

# Collection of atoms
	group alloy type  1 2
5000 atoms in group alloy


# ----------------- Run Section -----------------

include "test.in.run"
# Thermo output
	compute msd all msd
	compute pot_eng_atom all pe/atom
	compute pot_eng all reduce sum c_pot_eng_atom
	compute kin_eng all ke

	thermo          500
	thermo_style    custom step temp press pe ke etotal vol density enthalpy c_pot_eng c_kin_eng c_msd[1] c_msd[2] c_msd[3]
	thermo_modify   flush yes

	dump            d1 all custom 50000 test_W-Mo.dump id type element x y z xu yu zu vx vy vz
	dump_modify     d1 element W Mo


# ----- HEATING FROM Ti TO Thigh -----

	fix             fheat_iso all npt temp ${Ti} ${Thigh} ${tdamp} iso ${press} ${press} ${pdamp}
	fix             fheat_iso all npt temp 2000 ${Thigh} ${tdamp} iso ${press} ${press} ${pdamp}
	fix             fheat_iso all npt temp 2000 6000 ${tdamp} iso ${press} ${press} ${pdamp}
	fix             fheat_iso all npt temp 2000 6000 0.1 iso ${press} ${press} ${pdamp}
	fix             fheat_iso all npt temp 2000 6000 0.1 iso 1 ${press} ${pdamp}
	fix             fheat_iso all npt temp 2000 6000 0.1 iso 1 1 ${pdamp}
	fix             fheat_iso all npt temp 2000 6000 0.1 iso 1 1 1
	run             2000000   # 2 ns
Neighbor list info ...
  update: every = 1 steps, delay = 0 steps, check = yes
  max neighbors/atom: 2000, page size: 100000
  master list distance cutoff = 7.3
  ghost atom cutoff = 7.3
  binsize = 3.65, bins = 9 9 22
  1 neighbor lists, perpetual/occasional/extra = 1 0 0
  (1) pair eam/fs, perpetual
      attributes: half, newton on
      pair build: half/bin/atomonly/newton
      stencil: half/bin/3d
      bin: standard
Per MPI rank memory allocation (min/avg/max) = 3.845 | 3.845 | 3.845 Mbytes
   Step          Temp          Press          PotEng         KinEng         TotEng         Volume        Density        Enthalpy      c_pot_eng      c_kin_eng       c_msd[1]       c_msd[2]       c_msd[3]   
         0   2046.6096      5217.09       -37941.552      1322.4607     -36619.091      83033.145      13.995488     -36348.714     -37941.552      1322.4607      0              0              0            
       500   1977.1443     -4137.1764     -37930.318      1277.5743     -36652.743      83327.425      13.946061     -36867.913     -37930.318      1277.5743      0.044810521    0.044887068    0.045065712  
      1000   2016.353      -1072.442      -37937.993      1302.9098     -36635.083      83206.671      13.9663       -36690.778     -37937.993      1302.9098      0.042816758    0.040082664    0.041010414  
      1500   1998.3372      2120.5875     -37947.352      1291.2685     -36656.083      83060.589      13.990864     -36546.147     -37947.352      1291.2685      0.045517895    0.044451345    0.041546959  
      2000   1964.1978     -381.37521     -37943.567      1269.2086     -36674.358      83186.657      13.969661     -36694.16      -37943.567      1269.2086      0.042904467    0.038258197    0.038525144  
      2500   2044.0192     -1154.7687     -37939.772      1320.7869     -36618.985      83259.703      13.957405     -36678.995     -37939.772      1320.7869      0.040001966    0.041871227    0.043611087  
      3000   2025.1619     -2576.2805     -37912.169      1308.6019     -36603.568      83316.903      13.947823     -36737.54      -37912.169      1308.6019      0.04152115     0.041522676    0.040762921  
      3500   2037.2837      567.63359     -37936.395      1316.4346     -36619.961      83200.166      13.967392     -36590.484     -37936.395      1316.4346      0.042920622    0.042758524    0.041962899  
      4000   2020.5345     -856.94957     -37951.464      1305.6117     -36645.852      83194.611      13.968325     -36690.35      -37951.464      1305.6117      0.044020616    0.041519858    0.042036683  
      4500   1976.6914      1218.9834     -37944.959      1277.2816     -36667.677      83142.638      13.977057     -36604.42      -37944.959      1277.2816      0.043314519    0.041653108    0.040343109  
      5000   2015.1464      261.89837     -37938.016      1302.1301     -36635.886      83209.821      13.965772     -36622.284     -37938.016      1302.1301      0.040280653    0.041487366    0.040725744  
      5500   2028.7998      5459.9791     -37917.876      1310.9526     -36606.924      83058.12       13.99128      -36323.874     -37917.876      1310.9526      0.042157419    0.042558421    0.04222837   
      6000   2065.8476     -1768.1291     -37915.578      1334.8918     -36580.686      83304.453      13.949907     -36672.619     -37915.578      1334.8918      0.042627061    0.042845532    0.042955477  
      6500   1982.28       -2594.7316     -37922.348      1280.8928     -36641.455      83266.111      13.956331     -36776.305     -37922.348      1280.8928      0.045773534    0.041567148    0.039627026  
      7000   2022.2884      2682.5547     -37913.697      1306.7451     -36606.952      83152.676      13.975369     -36467.728     -37913.697      1306.7451      0.042998963    0.043030139    0.042683389  
      7500   2003.0379     -1961.7054     -37931.141      1294.3059     -36636.835      83277.717      13.954386     -36738.801     -37931.141      1294.3059      0.042087486    0.040541513    0.042044098  
      8000   2021.6324     -3298.6534     -37933.412      1306.3212     -36627.09       83274.27       13.954963     -36798.54      -37933.412      1306.3212      0.041737717    0.042011293    0.040622215  
      8500   2008.8699      4891.2411     -37895.962      1298.0744     -36597.888      83108.687      13.982767     -36344.167     -37895.962      1298.0744      0.042758496    0.042887224    0.04427817   
      9000   1991.436      -95.997874     -37939.838      1286.8091     -36653.028      83156.667      13.974699     -36658.011     -37939.838      1286.8091      0.044842461    0.042336824    0.042812346  
      9500   2020.4397     -5311.2576     -37927.306      1305.5505     -36621.755      83329.851      13.945655     -36897.996     -37927.306      1305.5505      0.043335286    0.041439034    0.041355037  
     10000   2016.0781     -2643.6099     -37916.255      1302.7321     -36613.523      83295.013      13.951488     -36750.961     -37916.255      1302.7321      0.040435334    0.041336273    0.04088815   
     10500   1984.6637      3304.8256     -37941.991      1282.433      -36659.558      83089.749      13.985954     -36488.168     -37941.991      1282.433       0.040866981    0.041849279    0.039968986  
     11000   2021.8239      745.67145     -37928.551      1306.4449     -36622.106      83196.999      13.967924     -36583.385     -37928.551      1306.4449      0.040204699    0.041525277    0.042313509  
     11500   2036.9586     -1867.3416     -37914.625      1316.2245     -36598.401      83294.413      13.951588     -36695.481     -37914.625      1316.2245      0.044737542    0.041539065    0.040993019  
     12000   2038.9945     -1179.827      -37934.06       1317.5401     -36616.52       83225.874      13.963078     -36677.806     -37934.06       1317.5401      0.04334402     0.040957546    0.043505904  
     12500   2004.471       3579.3918     -37867.068      1295.232      -36571.836      83204.848      13.966607     -36385.95      -37867.068      1295.232       0.041244256    0.041604149    0.041754879  
     13000   2063.8249      2089.4856     -37902.211      1333.5848     -36568.626      83238.283      13.960996     -36460.071     -37902.211      1333.5848      0.040240634    0.041657493    0.042175777  
     13500   2054.6665     -3601.3405     -37932.322      1327.6668     -36604.656      83300.34       13.950596     -36791.896     -37932.322      1327.6668      0.04189659     0.03976388     0.041474147  
     14000   2037.8934      3279.8494     -37938.67       1316.8286     -36621.842      83094.641      13.98513      -36451.737     -37938.67       1316.8286      0.042718248    0.039776086    0.041039964  
     14500   2062.9971      3422.5484     -37919.436      1333.0499     -36586.386      83139.137      13.977645     -36408.785     -37919.436      1333.0499      0.041758357    0.041464931    0.042574462  
     15000   2014.292      -6707.5265     -37871.522      1301.578      -36569.944      83490.975      13.918742     -36919.48      -37871.522      1301.578       0.04303624     0.042114663    0.043423131  
     15500   2075.9754     -1562.5169     -37929.865      1341.4361     -36588.429      83260.631      13.957249     -36669.628     -37929.865      1341.4361      0.042062203    0.042154747    0.041489267  
     16000   2025.5035      5643.0514     -37918.079      1308.8226     -36609.256      83048.724      13.992862     -36316.749     -37918.079      1308.8226      0.041422063    0.041297063    0.038805342  
     16500   2024.0028     -1731.9887     -37909.89       1307.8529     -36602.037      83329.341      13.945741     -36692.118     -37909.89       1307.8529      0.043267809    0.04277458     0.041503957  
     17000   2048.0014     -5414.709      -37905.853      1323.36       -36582.493      83406.452      13.932847     -36864.373     -37905.853      1323.36        0.04212081     0.040066582    0.043472163  
     17500   2053.2595      3151.9923     -37906.671      1326.7577     -36579.913      83129.781      13.979218     -36416.37      -37906.671      1326.7577      0.040856837    0.043922768    0.041963499  
     18000   2043.9531     -1330.46       -37945.049      1320.7441     -36624.305      83205.581      13.966483     -36693.4       -37945.049      1320.7441      0.039379315    0.040727741    0.040172382  
     18500   2060.1868     -4122.5408     -37879.704      1331.2339     -36548.47       83445.58       13.926314     -36763.183     -37879.704      1331.2339      0.041871902    0.042167575    0.04351578   
     19000   1990.6845      940.66195     -37886.925      1286.3236     -36600.601      83239.424      13.960805     -36551.73      -37886.925      1286.3236      0.044582396    0.042871287    0.043389496  
     19500   2022.5273      5630.1503     -37903.628      1306.8994     -36596.728      83125.55       13.97993      -36304.62      -37903.628      1306.8994      0.041864178    0.043574273    0.039856994  
     20000   2047.2286      1569.2947     -37888.805      1322.8607     -36565.944      83280.094      13.953987     -36484.373     -37888.805      1322.8607      0.042094638    0.043125142    0.042494867  
     20500   2046.6645     -2440.1128     -37911.555      1322.4962     -36589.059      83275.826      13.954702     -36715.888     -37911.555      1322.4962      0.041459251    0.043076298    0.040699035  
     21000   2042.4247     -426.47932     -37924.668      1319.7565     -36604.911      83254.992      13.958194     -36627.073     -37924.668      1319.7565      0.042590082    0.041010625    0.040057311  
     21500   2007.0559     -882.04993     -37896.655      1296.9023     -36599.753      83291.611      13.952058     -36645.608     -37896.655      1296.9023      0.043127961    0.042812263    0.041033814  
     22000   2092.8873      5003.2481     -37890.779      1352.3641     -36538.415      83122.836      13.980386     -36278.84      -37890.779      1352.3641      0.041643498    0.04208605     0.041212656  
     22500   2025.0108     -2330.2112     -37905.609      1308.5042     -36597.105      83325.06       13.946457     -36718.293     -37905.609      1308.5042      0.04367809     0.040634274    0.041722122  
     23000   2021.7818      283.8318      -37910.064      1306.4177     -36603.646      83276.835      13.954533     -36588.893     -37910.064      1306.4177      0.041780984    0.04473864     0.040448126  
     23500   2046.2718      891.46573     -37885.383      1322.2424     -36563.141      83217.609      13.964465     -36516.838     -37885.383      1322.2424      0.043841224    0.039650156    0.043481456  
     24000   2076.4428     -2219.5137     -37882.253      1341.7381     -36540.515      83370.275      13.938893     -36656.009     -37882.253      1341.7381      0.043820504    0.042870316    0.042408274  
     24500   2044.2112     -4507.708      -37890.131      1320.911      -36569.22       83444.689      13.926463     -36803.99      -37890.131      1320.911       0.041677028    0.041250882    0.041236316  
     25000   2060.8415      920.33883     -37916.719      1331.657      -36585.062      83245.997      13.959703     -36537.243     -37916.719      1331.657       0.042413949    0.041786293    0.039905328  
     25500   2063.9072      5004.4768     -37908.385      1333.6379     -36574.747      83079.85       13.98762      -36315.243     -37908.385      1333.6379      0.04282965     0.041512612    0.041678989  
     26000   2052.5789     -3886.872      -37878.074      1326.3179     -36551.756      83402.53       13.933503     -36754.09      -37878.074      1326.3179      0.04222126     0.042218872    0.04382946   
     26500   2048.6496     -2794.5583     -37901.918      1323.7789     -36578.139      83346.987      13.942788     -36723.515     -37901.918      1323.7789      0.043209003    0.041106789    0.040400307  
     27000   2029.7259      2201.7041     -37894.491      1311.551      -36582.94       83211.624      13.965469     -36468.591     -37894.491      1311.551       0.043141943    0.043369407    0.044871665  
     27500   2027.5565      1306.9303     -37873.295      1310.1492     -36563.146      83277.309      13.954454     -36495.215     -37873.295      1310.1492      0.042990932    0.042346082    0.043138515  
     28000   2059.5821      41.478119     -37870.806      1330.8432     -36539.962      83330.182      13.9456       -36537.805     -37870.806      1330.8432      0.043402968    0.046464686    0.043679608  
     28500   2055.9624      702.69021     -37894.086      1328.5042     -36565.581      83280.364      13.953942     -36529.056     -37894.086      1328.5042      0.043091974    0.042301993    0.042561362  
     29000   2062.7504      1087.6761     -37906.142      1332.8904     -36573.251      83208.901      13.965926     -36516.763     -37906.142      1332.8904      0.044226147    0.041826992    0.040724153  
     29500   2058.3827     -2882.6954     -37889.164      1330.0682     -36559.096      83372.978      13.938441     -36709.104     -37889.164      1330.0682      0.04375508     0.04233971     0.042041889  
     30000   2055.0184     -261.81197     -37890.028      1327.8943     -36562.134      83307.967      13.949319     -36575.747     -37890.028      1327.8943      0.044524658    0.043517316    0.042429966  
     30500   2044.9061      3839.005      -37895.78       1321.36       -36574.42       83170.439      13.972385     -36375.134     -37895.78       1321.36        0.042316403    0.041263525    0.042385544  
     31000   2061.0987     -3242.645      -37884.616      1331.8231     -36552.792      83423.947      13.929926     -36721.634     -37884.616      1331.8231      0.045187942    0.045405042    0.041632517  
     31500   2048.9187      1294.1465     -37923.424      1323.9528     -36599.471      83177.684      13.971168     -36532.285     -37923.424      1323.9528      0.04372613     0.0403918      0.040924014  
     32000   2016.6424      2517.7045     -37878.555      1303.0967     -36575.458      83264.991      13.956518     -36444.614     -37878.555      1303.0967      0.043788111    0.043427925    0.043088381  
     32500   2035.5498     -646.41353     -37864.344      1315.3142     -36549.029      83346.181      13.942923     -36582.656     -37864.344      1315.3142      0.043845828    0.043115459    0.042295938  
     33000   2064.3523     -3845.6245     -37900.248      1333.9256     -36566.322      83396.041      13.934587     -36766.494     -37900.248      1333.9256      0.043548319    0.041062067    0.041647358  
     33500   2088.9254      235.24275     -37883.555      1349.804      -36533.751      83274.54       13.954918     -36521.524     -37883.555      1349.804       0.044556214    0.044483191    0.042234545  
     34000   2040.4364      580.29725     -37880.171      1318.4718     -36561.699      83313.459      13.948399     -36531.523     -37880.171      1318.4718      0.041541598    0.040790824    0.041002731  
     34500   2055.3053      202.5809      -37854.975      1328.0796     -36526.895      83382.356      13.936874     -36516.352     -37854.975      1328.0796      0.044975762    0.043698063    0.0436818    
     35000   2043.368      -1751.7788     -37865.488      1320.3661     -36545.122      83380.171      13.937239     -36636.288     -37865.488      1320.3661      0.044184606    0.041755227    0.043186421  
     35500   2088.4183      865.68202     -37847.915      1349.4763     -36498.439      83380.789      13.937136     -36453.387     -37847.915      1349.4763      0.042491821    0.044522925    0.043355255  
     36000   2095.6227      4920.7583     -37871.714      1354.1316     -36517.582      83173.573      13.971858     -36262.132     -37871.714      1354.1316      0.043584811    0.043306772    0.041229752  
     36500   2060.6416     -2854.476      -37881.961      1331.5278     -36550.433      83370.185      13.938908     -36698.967     -37881.961      1331.5278      0.041922354    0.042628616    0.042828893  
     37000   2081.4215     -2794.8478     -37865.239      1344.9552     -36520.284      83395.905      13.93461      -36665.76      -37865.239      1344.9552      0.045290811    0.044762414    0.04315151   
     37500   2114.3213      1827.7546     -37906.424      1366.2141     -36540.21       83209.797      13.965776     -36445.284     -37906.424      1366.2141      0.041468731    0.042427091    0.042686707  
     38000   2050.1093     -4146.7161     -37862.149      1324.7221     -36537.427      83437.696      13.92763      -36753.378     -37862.149      1324.7221      0.04271169     0.046848621    0.043612931  
     38500   2106.8704     -2332.4122     -37878.607      1361.3996     -36517.207      83422.673      13.930138     -36638.652     -37878.607      1361.3996      0.041174144    0.042450991    0.042091709  
     39000   2059.9464      9183.4177     -37884.242      1331.0786     -36553.163      83009.59       13.999459     -36077.366     -37884.242      1331.0786      0.043889279    0.042653564    0.043059804  
     39500   2064.6376     -3268.579      -37872.072      1334.1099     -36537.962      83427.09       13.929401     -36708.161     -37872.072      1334.1099      0.047742142    0.040710112    0.042916605  
     40000   2065.467       958.92436     -37892.274      1334.6458     -36557.629      83268.7        13.955897     -36507.791     -37892.274      1334.6458      0.043081597    0.043906543    0.043291816  
     40500   2078.4351     -1751.7814     -37873.033      1343.0255     -36530.007      83364.484      13.939862     -36621.156     -37873.033      1343.0255      0.041428918    0.04431049     0.042316962  
     41000   2080.6184      975.9141      -37870.627      1344.4363     -36526.191      83288.162      13.952636     -36475.458     -37870.627      1344.4363      0.041367356    0.044003816    0.040856553  
     41500   2090.3387     -1672.4584     -37869.14       1350.7172     -36518.423      83353.646      13.941674     -36605.433     -37869.14       1350.7172      0.044134226    0.042479912    0.043150761  
     42000   2075.8905     -869.28263     -37851.385      1341.3812     -36510.004      83376.418      13.937866     -36555.241     -37851.385      1341.3812      0.046466857    0.045057899    0.043354686  
     42500   2066.2793     -2403.5993     -37855.39       1335.1707     -36520.22       83427.684      13.929302     -36645.378     -37855.39       1335.1707      0.045638119    0.043851063    0.040675841  
     43000   2095.3392      2447.1823     -37893.843      1353.9484     -36539.895      83243.948      13.960046     -36412.747     -37893.843      1353.9484      0.041708749    0.044095645    0.04289334   
     43500   2059.9916      5656.8278     -37856.152      1331.1078     -36525.044      83208.137      13.966055     -36231.26      -37856.152      1331.1078      0.041995016    0.044660142    0.043060676  
     44000   2108.4903     -382.70072     -37864.119      1362.4463     -36501.672      83359.162      13.940752     -36521.584     -37864.119      1362.4463      0.04354264     0.041819072    0.044249579  
     44500   2015.3462     -5970.0572     -37838.191      1302.2592     -36535.932      83597.421      13.901019     -36847.434     -37838.191      1302.2592      0.04613569     0.044856235    0.047135659  
     45000   2097.3259      3364.2407     -37858.83       1355.2321     -36503.598      83260.053      13.957346     -36328.769     -37858.83       1355.2321      0.044694441    0.039535358    0.044614035  
     45500   2059.9652      3855.7921     -37842.561      1331.0908     -36511.47       83263.645      13.956744     -36311.089     -37842.561      1331.0908      0.042729136    0.044982401    0.042518674  
     46000   2070.8685     -645.45397     -37884.638      1338.1361     -36546.502      83310.307      13.948927     -36580.065     -37884.638      1338.1361      0.040864076    0.043480325    0.043636619  
     46500   2085.6079     -225.34382     -37863.089      1347.6603     -36515.429      83357.869      13.940968     -36527.153     -37863.089      1347.6603      0.042290908    0.044035753    0.043405612  
     47000   2119.9774     -844.23977     -37867.725      1369.8689     -36497.856      83382.414      13.936864     -36541.793     -37867.725      1369.8689      0.046966237    0.042533618    0.045001204  
     47500   2117.5681     -4748.7932     -37898.279      1368.3121     -36529.967      83418.488      13.930837     -36777.216     -37898.279      1368.3121      0.044425749    0.042891409    0.044517232  
     48000   2078.6016     -1076.9413     -37879.179      1343.133      -36536.046      83370.948      13.938781     -36592.085     -37879.179      1343.133       0.041853836    0.043193971    0.044686786  
     48500   2116.9017      3983.981      -37856.383      1367.8815     -36488.501      83238.307      13.960992     -36281.521     -37856.383      1367.8815      0.041881894    0.044359598    0.044164605  
     49000   2142.802      -208.67475     -37843.953      1384.6175     -36459.336      83406.218      13.932887     -36470.199     -37843.953      1384.6175      0.042439449    0.043600894    0.045123279  
     49500   2084.5504     -6046.7709     -37850.648      1346.977      -36503.671      83537.482      13.910994     -36818.949     -37850.648      1346.977       0.045049977    0.042286083    0.044881697  
     50000   2073.1902      794.90942     -37869.396      1339.6364     -36529.76       83288.768      13.952534     -36488.437     -37869.396      1339.6364      0.044780047    0.043257616    0.042278343  
     50500   2153.467       2298.5554     -37860.281      1391.5089     -36468.772      83295.901      13.951339     -36349.272     -37860.281      1391.5089      0.044205314    0.042088702    0.042964748  
     51000   2077.8016     -1452.1753     -37852.945      1342.6161     -36510.329      83425.751      13.929624     -36585.944     -37852.945      1342.6161      0.042736128    0.043860782    0.04255328   
     51500   2118.204       234.91614     -37842.307      1368.723      -36473.584      83414.137      13.931564     -36461.354     -37842.307      1368.723       0.043442525    0.042256862    0.044287264  
     52000   2073.5315      4311.2882     -37844.153      1339.8569     -36504.296      83262.134      13.956997     -36280.246     -37844.153      1339.8569      0.044810129    0.043924159    0.04264241   
     52500   2108.657      -432.89047     -37866.26       1362.554      -36503.706      83389.484      13.935682     -36526.237     -37866.26       1362.554       0.045070348    0.043624315    0.043347926  
     53000   2117.3358     -2114.7703     -37834.919      1368.162      -36466.757      83461.67       13.92363      -36576.921     -37834.919      1368.162       0.045042539    0.043788409    0.044061054  
     53500   2097.716      -1173.0116     -37836.091      1355.4842     -36480.607      83455.623      13.924638     -36541.708     -37836.091      1355.4842      0.042507776    0.044260901    0.043929222  
     54000   2115.6917      5974.6237     -37864.386      1367.0996     -36497.287      83157.552      13.97455      -36187.186     -37864.386      1367.0996      0.04245936     0.045028887    0.042145717  
     54500   2132.2408     -3921.7139     -37840.039      1377.7932     -36462.245      83523.979      13.913242     -36666.691     -37840.039      1377.7932      0.045685848    0.041870393    0.045966795  
     55000   2110.5637     -5627.8742     -37855.333      1363.786      -36491.547      83554.951      13.908085     -36785.045     -37855.333      1363.786       0.045953885    0.044388375    0.043353605  
     55500   2113.897       4406.6912     -37860.761      1365.9399     -36494.821      83224.144      13.963368     -36265.918     -37860.761      1365.9399      0.04350833     0.043270789    0.042373712  
     56000   2150.4304      1925.3031     -37800.294      1389.5467     -36410.747      83408.006      13.932588     -36310.518     -37800.294      1389.5467      0.045164175    0.04542705     0.045817323  
     56500   2085.7992      742.49811     -37860.95       1347.7839     -36513.166      83322.351      13.946911     -36474.551     -37860.95       1347.7839      0.040562848    0.043557377    0.042930344  
     57000   2109.5629      1146.7538     -37874.365      1363.1394     -36511.226      83292.324      13.951938     -36451.609     -37874.365      1363.1394      0.044822096    0.044406957    0.040927593  
     57500   2136.996      -1513.7245     -37853.524      1380.8659     -36472.658      83446.335      13.926188     -36551.498     -37853.524      1380.8659      0.044195405    0.044144072    0.043706136  
     58000   2107.8834     -2582.0756     -37848.804      1362.0541     -36486.75       83495.166      13.918044     -36621.311     -37848.804      1362.0541      0.044578454    0.045509998    0.04268585   
     58500   2114.1678      4335.6416     -37901.259      1366.1149     -36535.144      83143.384      13.976931     -36310.15      -37901.259      1366.1149      0.041795704    0.043589395    0.040874159  
     59000   2119.1678     -2033.7794     -37835.321      1369.3458     -36465.975      83492.074      13.918559     -36571.958     -37835.321      1369.3458      0.04151099     0.044833864    0.042039718  
     59500   2091.9176     -3086.3562     -37838.262      1351.7375     -36486.524      83490.736      13.918782     -36647.357     -37838.262      1351.7375      0.046268935    0.043157149    0.043827981  
     60000   2117.2286      3696.347      -37864.425      1368.0927     -36496.332      83223.741      13.963436     -36304.328     -37864.425      1368.0927      0.044503988    0.043789789    0.041664711  
     60500   2098.9319      5778.6026     -37801.797      1356.2699     -36445.527      83289.019      13.952492     -36145.127     -37801.797      1356.2699      0.045491285    0.04710446     0.044825514  
     61000   2132.507      -3886.4876     -37835.207      1377.9652     -36457.242      83530.336      13.912184     -36659.866     -37835.207      1377.9652      0.043324285    0.044129204    0.046316663  
     61500   2143.0399     -4298.1344     -37879.017      1384.7712     -36494.245      83470.409      13.922172     -36718.17      -37879.017      1384.7712      0.03961426     0.045424391    0.0435686    
     62000   2061.1508      2450.9559     -37849.581      1331.8569     -36517.724      83269.598      13.955746     -36390.341     -37849.581      1331.8569      0.044312353    0.041863413    0.041907777  
     62500   2132.6721      2734.1299     -37827.18       1378.0718     -36449.109      83328.501      13.945881     -36306.908     -37827.18       1378.0718      0.046752348    0.049717843    0.042389517  
     63000   2146.1714     -410.31971     -37848.447      1386.7947     -36461.652      83435.452      13.928005     -36483.02      -37848.447      1386.7947      0.046269104    0.046306769    0.042434777  
     63500   2110.6941      2474.8587     -37829.768      1363.8703     -36465.898      83318.955      13.947479     -36337.196     -37829.768      1363.8703      0.044604344    0.043220853    0.044711372  
     64000   2137.5074     -364.59821     -37858.651      1381.1963     -36477.455      83377.607      13.937668     -36496.429     -37858.651      1381.1963      0.042993787    0.045413322    0.044101284  
     64500   2137.1103     -1668.3009     -37826.871      1380.9397     -36445.931      83474.556      13.92148      -36532.851     -37826.871      1380.9397      0.046640492    0.042793106    0.046295192  
     65000   2105.6985     -2510.3593     -37842.093      1360.6423     -36481.451      83474.04       13.921566     -36612.241     -37842.093      1360.6423      0.045319923    0.045719407    0.041514167  
     65500   2098.248       5632.6916     -37854.605      1355.828      -36498.777      83228.929      13.962566     -36206.173     -37854.605      1355.828       0.043807093    0.049330987    0.042956687  
     66000   2101.1287     -1514.2656     -37817.889      1357.6894     -36460.2        83454.849      13.924768     -36539.075     -37817.889      1357.6894      0.04580277     0.046567165    0.044091866  
     66500   2132.8978     -5330.1081     -37824.685      1378.2177     -36446.467      83608.146      13.899236     -36724.614     -37824.685      1378.2177      0.043322613    0.043878754    0.046821452  
     67000   2114.5449      1592.4749     -37827.899      1366.3586     -36461.54       83354.953      13.941456     -36378.69      -37827.899      1366.3586      0.04366975     0.043334447    0.044477049  
     67500   2119.1479      2169.6913     -37838.474      1369.3329     -36469.142      83314.359      13.948248     -36356.316     -37838.474      1369.3329      0.042348834    0.045480706    0.043514124  
     68000   2189.9602     -3795.4755     -37815.631      1415.0898     -36400.541      83575.536      13.90466      -36598.528     -37815.631      1415.0898      0.047473899    0.050070374    0.046353094  
     68500   2157.7944     -1538.7649     -37828.399      1394.3052     -36434.094      83448.515      13.925825     -36514.24      -37828.399      1394.3052      0.043873477    0.044007985    0.043093087  
     69000   2155.4494      2266.2002     -37852.718      1392.7899     -36459.928      83297.375      13.951092     -36342.108     -37852.718      1392.7899      0.043286417    0.04371816     0.04494841   
     69500   2152.9833      717.88919     -37825.369      1391.1964     -36434.172      83433.367      13.928353     -36396.788     -37825.369      1391.1964      0.04578646     0.042851787    0.044674081  
     70000   2161.96        738.06352     -37829.505      1396.9969     -36432.508      83435.989      13.927915     -36394.072     -37829.505      1396.9969      0.04363827     0.047869939    0.042893387  
     70500   2146.8436     -1235.8647     -37850.115      1387.2291     -36462.886      83450.251      13.925535     -36527.257     -37850.115      1387.2291      0.045180777    0.047100518    0.047425527  
     71000   2151.5044      2171.3909     -37841.195      1390.2407     -36450.954      83338.888      13.944143     -36338.007     -37841.195      1390.2407      0.045326263    0.046204268    0.043488503  
     71500   2135.9115      1516.0978     -37813.353      1380.1651     -36433.188      83402.223      13.933554     -36354.266     -37813.353      1380.1651      0.044804266    0.044978856    0.043012506  
     72000   2104.8095     -3300.6117     -37834.803      1360.0678     -36474.735      83546.651      13.909467     -36646.848     -37834.803      1360.0678      0.047576992    0.044736504    0.043030743  
     72500   2106.8354     -780.41337     -37851.69       1361.3769     -36490.313      83407.773      13.932627     -36530.941     -37851.69       1361.3769      0.044321462    0.04389416     0.047889208  
     73000   2198.8468      2163.9193     -37814.406      1420.8321     -36393.574      83394.661      13.934817     -36280.94      -37814.406      1420.8321      0.044937975    0.048766145    0.043566506  
     73500   2123.2207     -3190.7035     -37823.098      1371.9646     -36451.133      83539.29       13.910693     -36617.5       -37823.098      1371.9646      0.044653484    0.042675887    0.041758781  
     74000   2217.732      -2724.1749     -37833.553      1433.0351     -36400.518      83573.545      13.904991     -36542.618     -37833.553      1433.0351      0.046409327    0.045505342    0.047732186  
     74500   2188.8926      6826.5587     -37818.666      1414.3999     -36404.266      83233.661      13.961772     -36049.624     -37818.666      1414.3999      0.044064479    0.044581389    0.04292375   
     75000   2125.6227     -5702.473      -37823.646      1373.5167     -36450.129      83604.471      13.899847     -36747.694     -37823.646      1373.5167      0.044349691    0.043442095    0.042713688  
     75500   2164.2113     -4405.9692     -37790.801      1398.4516     -36392.35       83641.191      13.893745     -36622.362     -37790.801      1398.4516      0.043091955    0.047618323    0.047887065  
     76000   2137.4039      6697.5048     -37792.741      1381.1294     -36411.612      83314.247      13.948267     -36063.337     -37792.741      1381.1294      0.046813508    0.046948371    0.045940437  
     76500   2152.6852     -909.83824     -37823.516      1391.0038     -36432.512      83469.342      13.92235      -36479.913     -37823.516      1391.0038      0.045852494    0.045098391    0.043142166  
     77000   2143.9046     -5383.8121     -37793.671      1385.33       -36408.341      83610.364      13.898867     -36689.298     -37793.671      1385.33        0.046105508    0.044923342    0.048788067  
     77500   2162.7127      951.85913     -37787.011      1397.4832     -36389.528      83470.641      13.922133     -36339.937     -37787.011      1397.4832      0.042801403    0.043652172    0.04709346   
     78000   2159.723      -394.26252     -37816.257      1395.5514     -36420.705      83484.96       13.919745     -36441.249     -37816.257      1395.5514      0.04292773     0.047074167    0.042798164  
     78500   2123.8943      432.77012     -37825.976      1372.3999     -36453.576      83426.995      13.929417     -36431.041     -37825.976      1372.3999      0.043730976    0.04660634     0.043995801  
     79000   2141.4838      1341.263      -37850.752      1383.7657     -36466.986      83352.268      13.941905     -36397.208     -37850.752      1383.7657      0.044309472    0.04463201     0.044875615  
     79500   2180.1728     -2291.7196     -37810.625      1408.7654     -36401.86       83547.579      13.909312     -36521.364     -37810.625      1408.7654      0.046538687    0.04455124     0.045248502  
     80000   2162.6054      1095.2976     -37821.793      1397.4139     -36424.379      83449.494      13.925661     -36367.331     -37821.793      1397.4139      0.044806076    0.04455311     0.043810405  
     80500   2138.1024      2124.7768     -37861.958      1381.5808     -36480.377      83309.048      13.949138     -36369.895     -37861.958      1381.5808      0.042403844    0.046300605    0.044954648  
     81000   2199.7598     -4850.2634     -37808.038      1421.422      -36386.616      83635.379      13.89471      -36639.805     -37808.038      1421.422       0.044562493    0.046638804    0.047251596  
     81500   2170.1355      4128.5005     -37806.286      1402.2797     -36404.006      83340.139      13.943934     -36189.254     -37806.286      1402.2797      0.045781185    0.044038112    0.044485349  
     82000   2123.1121      3700.5105     -37838.077      1371.8945     -36466.183      83311.39       13.948745     -36273.76      -37838.077      1371.8945      0.04391159     0.045403647    0.043708534  
     82500   2149.0972     -5420.5622     -37783.258      1388.6853     -36394.573      83657.191      13.891088     -36677.606     -37783.258      1388.6853      0.046635737    0.043170201    0.04969215   
     83000   2128.6829      3628.8338     -37780.259      1375.4941     -36404.765      83393.375      13.935032     -36215.884     -37780.259      1375.4941      0.045021428    0.047226862    0.046899235  
     83500   2113.6738      3338.2246     -37803.389      1365.7957     -36437.593      83367.066      13.93943      -36263.893     -37803.389      1365.7957      0.043671207    0.048404619    0.043468903  
     84000   2107.8512      1311.0951     -37775.884      1362.0333     -36413.851      83468.518      13.922487     -36345.547     -37775.884      1362.0333      0.045185352    0.04501205     0.050808564  
     84500   2219.6362     -1560.0066     -37821.099      1434.2656     -36386.833      83533.144      13.911716     -36468.168     -37821.099      1434.2656      0.044656509    0.044754596    0.042931316  
     85000   2177.8175      1939.2876     -37767.574      1407.2435     -36360.331      83484.732      13.919783     -36259.28      -37767.574      1407.2435      0.046096969    0.044065974    0.04365453   
     85500   2213.6433     -2132.4704     -37801.265      1430.3931     -36370.872      83570.806      13.905446     -36482.103     -37801.265      1430.3931      0.043335988    0.04868285     0.047844699  
     86000   2127.0416     -235.58961     -37787.876      1374.4336     -36413.443      83494.344      13.918181     -36425.72      -37787.876      1374.4336      0.045328111    0.04918761     0.048363611  
     86500   2159.5917      3000.2264     -37806.001      1395.4665     -36410.535      83366.42       13.939538     -36254.423     -37806.001      1395.4665      0.044509511    0.043850374    0.044787074  
     87000   2189.2298      2693.9131     -37806.774      1414.6178     -36392.156      83418.011      13.930917     -36251.897     -37806.774      1414.6178      0.044743674    0.045627223    0.044550412  
     87500   2176.4998     -6303.464      -37801.897      1406.3921     -36395.505      83708.96       13.882497     -36724.843     -37801.897      1406.3921      0.044321748    0.043692668    0.049649881  
     88000   2174.7381      1970.9822     -37813.508      1405.2537     -36408.254      83405.028      13.933085     -36305.65      -37813.508      1405.2537      0.043836964    0.0486817      0.041201806  
     88500   2148.0116      2330.1703     -37791.212      1387.9838     -36403.228      83437.567      13.927652     -36281.878     -37791.212      1387.9838      0.045393931    0.049898631    0.043434249  
     89000   2151.4073     -3549.7415     -37796.56       1390.178      -36406.382      83612.54       13.898506     -36591.632     -37796.56       1390.178       0.046318444    0.04634067     0.050948848  
     89500   2196.8893      2315.2869     -37840.112      1419.5672     -36420.545      83333.646      13.94502      -36300.121     -37840.112      1419.5672      0.043205792    0.042902104    0.042933968  
     90000   2192.0203     -3389.2585     -37771.8        1416.421      -36355.379      83644.516      13.893193     -36532.321     -37771.8        1416.421       0.045882641    0.045489583    0.045226374  
     90500   2169.5361     -2280.9519     -37792.425      1401.8923     -36390.533      83550.49       13.908828     -36509.48      -37792.425      1401.8923      0.04384851     0.047007112    0.048184908  
     91000   2181.716       361.1988      -37796.21       1409.7626     -36386.447      83468.655      13.922464     -36367.63      -37796.21       1409.7626      0.045376817    0.052107015    0.04426847   
     91500   2202.377       663.29327     -37801.344      1423.1132     -36378.231      83484.891      13.919757     -36343.669     -37801.344      1423.1132      0.047443399    0.043812923    0.044998298  
     92000   2188.9402     -5661.1634     -37775.785      1414.4307     -36361.354      83724.012      13.880001     -36657.187     -37775.785      1414.4307      0.04716992     0.044093697    0.051078545  
     92500   2191.3051      86.80315      -37793.465      1415.9588     -36377.506      83502.863      13.916761     -36372.982     -37793.465      1415.9588      0.042526088    0.046673193    0.046323022  
     93000   2215.2513     -2428.8875     -37815.797      1431.4322     -36384.365      83514.932      13.91475      -36510.973     -37815.797      1431.4322      0.045123242    0.0439125      0.043403484  
     93500   2174.0062     -1250.943      -37773.147      1404.7807     -36368.367      83556.69       13.907796     -36433.606     -37773.147      1404.7807      0.043974526    0.051001481    0.046167165  
     94000   2256.5555     -667.15231     -37782.422      1458.1218     -36324.301      83596.493      13.901174     -36359.111     -37782.422      1458.1218      0.047760944    0.044913001    0.048566988  
     94500   2167.0066     -222.69514     -37775.134      1400.2578     -36374.876      83519.888      13.913924     -36386.485     -37775.134      1400.2578      0.047379288    0.046005691    0.044944993  
     95000   2164.8188     -2782.7771     -37825.45       1398.8441     -36426.605      83480.194      13.92054      -36571.6       -37825.45       1398.8441      0.043399522    0.044083323    0.045684662  
     95500   2180.5872      232.04007     -37770.367      1409.0332     -36361.333      83536.003      13.91124      -36349.235     -37770.367      1409.0332      0.044990817    0.047021212    0.045249751  
     96000   2247.1232     -2382.9524     -37757.761      1452.0269     -36305.734      83627.628      13.895998     -36430.115     -37757.761      1452.0269      0.044737918    0.051699398    0.048647558  
     96500   2194.1925     -2165.0623     -37808.849      1417.8246     -36391.025      83520.721      13.913785     -36503.889     -37808.849      1417.8246      0.047906697    0.0458202      0.04614899   
     97000   2175.4203     -2743.0354     -37787.296      1405.6945     -36381.602      83585.032      13.90308      -36524.705     -37787.296      1405.6945      0.048259063    0.043732245    0.046256704  
     97500   2196.6708      969.13589     -37826.651      1419.426      -36407.225      83397.31       13.934375     -36356.779     -37826.651      1419.426       0.045445004    0.042478216    0.045830575  
     98000   2195.8686     -1696.9498     -37804.75       1418.9076     -36385.843      83536.077      13.911227     -36474.32      -37804.75       1418.9076      0.042788633    0.044119029    0.044561786  
     98500   2254.2419      274.57821     -37800.609      1456.6268     -36343.983      83513.888      13.914924     -36329.67      -37800.609      1456.6268      0.045767792    0.047787539    0.043743252  
     99000   2196.811      -1960.0827     -37760.999      1419.5166     -36341.482      83618.595      13.897499     -36443.78      -37760.999      1419.5166      0.045466528    0.043990298    0.049553891  
     99500   2169.575       4802.837      -37778.342      1401.9175     -36376.425      83389.678      13.93565      -36126.448     -37778.342      1401.9175      0.048210845    0.043370902    0.044706579  
    100000   2183.2644     -913.36052     -37765.655      1410.7632     -36354.892      83618.122      13.897578     -36402.56      -37765.655      1410.7632      0.04798321     0.043543463    0.04579739   
    100500   2182.2476     -5509.0621     -37782.492      1410.1061     -36372.386      83658.807      13.890819     -36660.045     -37782.492      1410.1061      0.04411104     0.044080463    0.049057851  
    101000   2229.13        875.17608     -37805.132      1440.4002     -36364.731      83454.991      13.924744     -36319.145     -37805.132      1440.4002      0.042967119    0.044445317    0.046144571  
    101500   2190.598       2037.3519     -37762.507      1415.5019     -36347.005      83505.174      13.916376     -36240.818     -37762.507      1415.5019      0.046529129    0.045122573    0.043972184  
    102000   2216.3079     -3256.639      -37768.12       1432.1149     -36336.005      83636.919      13.894455     -36506.008     -37768.12       1432.1149      0.045711227    0.044596637    0.044684507  
    102500   2144.1088     -4869.3347     -37795.076      1385.4619     -36409.614      83640.152      13.893918     -36663.813     -37795.076      1385.4619      0.045590898    0.044112603    0.050905877  
    103000   2227.5163      2429.8225     -37783.528      1439.3575     -36344.17       83438.862      13.927436     -36217.629     -37783.528      1439.3575      0.043384884    0.043750865    0.045604907  
    103500   2221.0441      3266.7728     -37767.873      1435.1753     -36332.698      83465.726      13.922953     -36162.515     -37767.873      1435.1753      0.044599273    0.047030964    0.042912169  
    104000   2208.9442     -3088.7877     -37778.053      1427.3567     -36350.696      83601.216      13.900388     -36511.869     -37778.053      1427.3567      0.044781395    0.045654255    0.049080976  
    104500   2176.7757      1891.3019     -37792.45       1406.5703     -36385.879      83484.245      13.919864     -36287.33      -37792.45       1406.5703      0.046814438    0.044235589    0.046671441  
    105000   2206.2971      160.27343     -37787.054      1425.6463     -36361.408      83529.208      13.912372     -36353.052     -37787.054      1425.6463      0.04710499     0.045751248    0.04322533   
    105500   2196.0379     -2175.6344     -37754.43       1419.017      -36335.413      83635.483      13.894693     -36448.984     -37754.43       1419.017       0.047296605    0.045750036    0.050092098  
    106000   2247.2702      582.65909     -37772.574      1452.1219     -36320.452      83582.797      13.903452     -36290.056     -37772.574      1452.1219      0.045607703    0.046609799    0.04830677   
    106500   2204.4535      4467.3121     -37783.237      1424.4549     -36358.782      83366.097      13.939592     -36126.334     -37783.237      1424.4549      0.047633325    0.043024227    0.042814226  
    107000   2203.6695     -2562.1867     -37778.108      1423.9484     -36354.16       83662.668      13.890178     -36487.953     -37778.108      1423.9484      0.048237571    0.045081041    0.045970626  
    107500   2226.9094     -140.89145     -37747.751      1438.9653     -36308.786      83594.821      13.901452     -36316.137     -37747.751      1438.9653      0.04848372     0.044577894    0.048268261  
    108000   2265.9233      1264.0311     -37755.824      1464.175      -36291.649      83517.252      13.914363     -36225.758     -37755.824      1464.175       0.044150467    0.044691574    0.044426432  
    108500   2222.4472      885.30341     -37756.149      1436.0819     -36320.067      83550.439      13.908836     -36273.9       -37756.149      1436.0819      0.046156165    0.046135788    0.045142554  
    109000   2227.6901     -560.30641     -37786.37       1439.4697     -36346.9        83590.689      13.902139     -36376.133     -37786.37       1439.4697      0.044866011    0.04527279     0.047655417  
    109500   2181.7325     -1602.8155     -37759.355      1409.7733     -36349.582      83566.285      13.906199     -36433.181     -37759.355      1409.7733      0.045756213    0.044764316    0.04843556   
    110000   2230.2463     -2504.3109     -37762.378      1441.1215     -36321.256      83640.449      13.893868     -36451.992     -37762.378      1441.1215      0.047332913    0.044533951    0.045529239  
    110500   2224.7517      4333.3531     -37749.475      1437.5711     -36311.904      83468.949      13.922415     -36086.148     -37749.475      1437.5711      0.045675939    0.044055172    0.045490562  
    111000   2213.9009      2004.2843     -37751.81       1430.5596     -36321.251      83507.177      13.916042     -36216.785     -37751.81       1430.5596      0.044520153    0.046058682    0.047502651  
    111500   2186.1507     -4204.9908     -37776.873      1412.6282     -36364.245      83682.666      13.886859     -36583.874     -37776.873      1412.6282      0.046032237    0.044724588    0.047071161  
    112000   2240.5857      4000.8601     -37741.831      1447.8025     -36294.029      83500.653      13.917129     -36085.516     -37741.831      1447.8025      0.043873192    0.045618466    0.044199908  
    112500   2242.2426      1559.5194     -37779.546      1448.8732     -36330.673      83485.726      13.919618     -36249.41      -37779.546      1448.8732      0.04582763     0.042532374    0.048022056  
    113000   2230.4221     -5730.7767     -37779.275      1441.2351     -36338.04       83771.265      13.872172     -36637.679     -37779.275      1441.2351      0.045487951    0.04541011     0.049506802  
    113500   2262.6759     -523.95127     -37751.707      1462.0766     -36289.631      83613.957      13.89827      -36316.975     -37751.707      1462.0766      0.045823655    0.046608704    0.043087087  
    114000   2278.7868      905.36977     -37738.489      1472.487      -36266.002      83621.573      13.897004     -36218.749     -37738.489      1472.487       0.049495849    0.047086869    0.049854441  
    114500   2247.619       785.10127     -37769.031      1452.3473     -36316.683      83524.202      13.913205     -36275.755     -37769.031      1452.3473      0.045852022    0.0437676      0.047272421  
    115000   2233.1517     -1665.4713     -37772.753      1442.9989     -36329.755      83602.857      13.900116     -36416.66      -37772.753      1442.9989      0.049598867    0.046524475    0.045091736  
    115500   2242.8405      304.3828      -37727.416      1449.2596     -36278.156      83577.847      13.904275     -36262.278     -37727.416      1449.2596      0.049946296    0.044145191    0.048009864  
    116000   2257.1387      1247.4742     -37729.84       1458.4986     -36271.341      83642.887      13.893463     -36206.216     -37729.84       1458.4986      0.045171872    0.048094273    0.050894867  
    116500   2224.3665     -4475.8411     -37759.958      1437.3222     -36322.636      83701.628      13.883713     -36556.465     -37759.958      1437.3222      0.046068855    0.047479162    0.049055539  
    117000   2247.9857      880.09843     -37773.368      1452.5842     -36320.784      83502.074      13.916892     -36274.915     -37773.368      1452.5842      0.046982449    0.04627173     0.04226017   
    117500   2285.4493     -1068.9787     -37727.346      1476.7921     -36250.553      83667.108      13.889441     -36306.376     -37727.346      1476.7921      0.046694376    0.046234564    0.050647073  
    118000   2204.9697     -5724.5563     -37747.375      1424.7885     -36322.586      83797.827      13.867775     -36621.995     -37747.375      1424.7885      0.052341561    0.046899689    0.048813166  
    118500   2241.8908      1911.3924     -37743.351      1448.6459     -36294.705      83565.648      13.906305     -36195.011     -37743.351      1448.6459      0.045696542    0.045140423    0.042828568  
    119000   2267.127       1648.4063     -37732.292      1464.9528     -36267.339      83574.103      13.904898     -36181.354     -37732.292      1464.9528      0.046707061    0.04543887     0.048112376  
    119500   2241.2407     -3857.4433     -37748.994      1448.2258     -36300.768      83718.41       13.88093      -36502.33      -37748.994      1448.2258      0.048013734    0.045830893    0.049936422  
    120000   2240.6726      912.96542     -37757.648      1447.8587     -36309.79       83500.382      13.917174     -36262.209     -37757.648      1447.8587      0.04523731     0.045179388    0.044542372  
    120500   2268.014       3843.3696     -37740.234      1465.5259     -36274.708      83532.325      13.911852     -36074.327     -37740.234      1465.5259      0.049934434    0.045546485    0.045837682  
    121000   2240.1491     -659.29648     -37736.563      1447.5204     -36289.042      83671.111      13.888777     -36323.473     -37736.563      1447.5204      0.047941504    0.044284393    0.049989535  
    121500   2211.6611      736.31915     -37744.197      1429.1123     -36315.085      83560.722      13.907125     -36276.682     -37744.197      1429.1123      0.045710114    0.047614645    0.047828066  
    122000   2248.1213      2340.0908     -37747.479      1452.6718     -36294.807      83520.074      13.913893     -36172.82      -37747.479      1452.6718      0.044810366    0.043331822    0.04429983   
    122500   2204.6156     -651.44161     -37715.08       1424.5597     -36290.521      83683.178      13.886774     -36324.546     -37715.08       1424.5597      0.047606685    0.045529768    0.052015967  
    123000   2212.2797      1185.2337     -37746.762      1429.512      -36317.249      83576.313      13.90453      -36255.423     -37746.762      1429.512       0.04813889     0.045222693    0.046987817  
    123500   2247.8872      1436.7906     -37769.894      1452.5206     -36317.374      83497.126      13.917717     -36242.495     -37769.894      1452.5206      0.047776188    0.042633732    0.046482563  
    124000   2216.1604     -3618.6253     -37719.222      1432.0196     -36287.202      83749.481      13.87578      -36476.356     -37719.222      1432.0196      0.048683601    0.046568108    0.051437635  
    124500   2260.7813      7039.3936     -37757.198      1460.8524     -36296.346      83370.493      13.938857     -35930.045     -37757.198      1460.8524      0.049103662    0.046504643    0.043633401  
    125000   2261.2868      1987.044      -37737.086      1461.179      -36275.907      83556.585      13.907813     -36172.278     -37737.086      1461.179       0.047487589    0.046833154    0.048043961  
    125500   2272.9271     -7852.2761     -37724.797      1468.7006     -36256.096      83898.89       13.85107      -36667.285     -37724.797      1468.7006      0.047007276    0.044740696    0.05126423   
    126000   2243.9568     -164.18419     -37743.815      1449.9809     -36293.834      83594.383      13.901525     -36302.4       -37743.815      1449.9809      0.047587283    0.045389423    0.046958293  
    126500   2248.2415      2944.1011     -37736.017      1452.7495     -36283.267      83513.418      13.915002     -36129.806     -37736.017      1452.7495      0.047050432    0.045809122    0.044316253  
    127000   2315.1713     -6927.5531     -37769.997      1495.9976     -36273.999      83782.204      13.870361     -36636.26      -37769.997      1495.9976      0.047766582    0.044047627    0.045885152  
    127500   2250.5491     -4022.3929     -37722.219      1454.2406     -36267.979      83794.672      13.868297     -36478.352     -37722.219      1454.2406      0.044223572    0.046543425    0.049814967  
    128000   2225.5063      582.81906     -37700.342      1438.0586     -36262.283      83632.57       13.895177     -36231.861     -37700.342      1438.0586      0.048531581    0.045975387    0.046566995  
    128500   2258.8433      2242.244      -37745.477      1459.6001     -36285.877      83551.832      13.908604     -36168.947     -37745.477      1459.6001      0.046858944    0.044616576    0.048164928  
    129000   2251.9414     -3269.4429     -37723.322      1455.1402     -36268.182      83759.061      13.874193     -36439.103     -37723.322      1455.1402      0.049665007    0.047149127    0.048121451  
    129500   2259.6904     -536.36543     -37747.556      1460.1474     -36287.408      83619.379      13.897369     -36315.402     -37747.556      1460.1474      0.046072236    0.045295007    0.046798288  
    130000   2291.0911      266.43382     -37767.383      1480.4377     -36286.945      83605.722      13.899639     -36273.042     -37767.383      1480.4377      0.042373967    0.043840625    0.045821844  
    130500   2254.8477      3913.8066     -37731.38       1457.0182     -36274.362      83527.312      13.912687     -36070.321     -37731.38       1457.0182      0.046047173    0.043815276    0.047309624  
    131000   2313.0822     -4683.566      -37745.037      1494.6477     -36250.389      83789.023      13.869232     -36495.326     -37745.037      1494.6477      0.047380602    0.044639242    0.052429192  
    131500   2259.096      -108.7945      -37725.727      1459.7634     -36265.963      83662.641      13.890183     -36271.644     -37725.727      1459.7634      0.046652671    0.046414696    0.047191752  
    132000   2231.0473      4524.4367     -37730.767      1441.6391     -36289.128      83469.154      13.922381     -36053.417     -37730.767      1441.6391      0.04728298     0.046026049    0.046189046  
    132500   2282.9616     -2466.6269     -37754.155      1475.1846     -36278.97       83660.509      13.890537     -36407.77      -37754.155      1475.1846      0.045165093    0.044666781    0.05036999   
    133000   2300.5724     -3728.2102     -37714.848      1486.5642     -36228.284      83798.471      13.867668     -36423.28      -37714.848      1486.5642      0.045708261    0.044636999    0.048892961  
    133500   2276.2491      1868.6709     -37698.261      1470.8472     -36227.413      83659.693      13.890672     -36129.838     -37698.261      1470.8472      0.051381015    0.047346327    0.048721484  
    134000   2288.4285      1114.7785     -37749.026      1478.7172     -36270.308      83544.776      13.909779     -36212.179     -37749.026      1478.7172      0.044576014    0.046110115    0.043768069  
    134500   2298.9073      258.91851     -37726.978      1485.4883     -36241.49       83658.8        13.89082      -36227.97      -37726.978      1485.4883      0.045760702    0.046881352    0.048797279  
    135000   2238.3908      974.29353     -37712.88       1446.3843     -36266.496      83617.049      13.897756     -36215.648     -37712.88       1446.3843      0.045461438    0.045147037    0.047373595  
    135500   2221.6786     -103.20211     -37717.796      1435.5853     -36282.211      83666.952      13.889467     -36287.6       -37717.796      1435.5853      0.046325206    0.047126042    0.049169477  
    136000   2283.1342      378.47283     -37747.825      1475.2962     -36272.528      83640.475      13.893864     -36252.771     -37747.825      1475.2962      0.049287044    0.047512825    0.048895837  
    136500   2311.3026     -52.279561     -37684.211      1493.4978     -36190.713      83780.213      13.87069      -36193.447     -37684.211      1493.4978      0.04835285     0.04611539     0.049645949  
    137000   2301.8817      1214.6588     -37725.642      1487.4103     -36238.232      83642.218      13.893574     -36174.82      -37725.642      1487.4103      0.048948203    0.044474331    0.04872083   
    137500   2318.196       1422.1049     -37737.715      1497.9521     -36239.763      83565.94       13.906256     -36165.589     -37737.715      1497.9521      0.045669902    0.044142499    0.047125857  
    138000   2263.9355     -4504.9402     -37702.75       1462.8905     -36239.86       83864.599      13.856733     -36475.667     -37702.75       1462.8905      0.04788325     0.046058385    0.04943772   
    138500   2311.7959      751.24839     -37705.489      1493.8165     -36211.673      83632.793      13.89514      -36172.458     -37705.489      1493.8165      0.049510934    0.046339437    0.049890623  
    139000   2306.3478      4934.0446     -37735.028      1490.2961     -36244.732      83482.024      13.920235     -35987.641     -37735.028      1490.2961      0.047747769    0.044434181    0.048161477  
    139500   2305.8583     -6904.9962     -37718.021      1489.9798     -36228.041      83925.381      13.846698     -36589.74      -37718.021      1489.9798      0.044997104    0.046149777    0.05590762   
    140000   2253.0779      1292.7384     -37709.43       1455.8746     -36253.556      83633.448      13.895031     -36186.075     -37709.43       1455.8746      0.047172578    0.044975135    0.048729246  
    140500   2282.5798      4725.7654     -37742.907      1474.9379     -36267.969      83460.23       13.92387      -36021.795     -37742.907      1474.9379      0.046101407    0.045360927    0.043524003  
    141000   2265.1149     -3643.4817     -37697.013      1463.6526     -36233.361      83794.267      13.868364     -36423.916     -37697.013      1463.6526      0.05031844     0.045847224    0.053784834  
    141500   2265.7468      85.669175     -37711.896      1464.0609     -36247.835      83691.802      13.885343     -36243.36      -37711.896      1464.0609      0.045832872    0.044842915    0.048570761  
    142000   2303.9073     -320.88616     -37756.502      1488.7191     -36267.783      83601.495      13.900342     -36284.527     -37756.502      1488.7191      0.043997243    0.045390778    0.047451012  
    142500   2296.8115      2936.2019     -37712.988      1484.134      -36228.854      83611.338      13.898706     -36075.625     -37712.988      1484.134       0.046931924    0.044033198    0.050823639  
    143000   2264.6448     -2526.193      -37697.502      1463.3489     -36234.153      83788.738      13.869279     -36366.265     -37697.502      1463.3489      0.047496453    0.044917421    0.051192436  
    143500   2244.122       377.22157     -37717.359      1450.0876     -36267.271      83662.415      13.89022      -36247.573     -37717.359      1450.0876      0.050145799    0.047941246    0.047973815  
    144000   2290.1431      6088.3587     -37730.374      1479.8251     -36250.548      83450.061      13.925567     -35933.434     -37730.374      1479.8251      0.048744703    0.042746517    0.046230606  
    144500   2297.3753      55.4185       -37680.391      1484.4983     -36195.893      83752.154      13.875337     -36192.996     -37680.391      1484.4983      0.047438256    0.047717821    0.054289449  
    145000   2306.6035     -8841.1756     -37710.996      1490.4613     -36220.535      83962.564      13.840566     -36683.859     -37710.996      1490.4613      0.046713957    0.04468535     0.049964566  
    145500   2261.7695      2148.4772     -37714.566      1461.4909     -36253.075      83608.391      13.899195     -36140.958     -37714.566      1461.4909      0.046519588    0.045871608    0.04732433   
    146000   2293.9681      3292.8692     -37715.297      1482.2967     -36233.001      83596.756      13.90113      -36061.189     -37715.297      1482.2967      0.047570575    0.045799336    0.050599842  
    146500   2293.8011     -2513.0633     -37693.134      1482.1888     -36210.945      83758.562      13.874276     -36342.323     -37693.134      1482.1888      0.051767969    0.047043626    0.050683682  
    147000   2253.1538     -4449.6438     -37701.282      1455.9237     -36245.359      83844.209      13.860103     -36478.215     -37701.282      1455.9237      0.04629344     0.045857035    0.050202345  
    147500   2324.4917      1720.7085     -37711.52       1502.0202     -36209.5        83659.346      13.89073      -36119.652     -37711.52       1502.0202      0.048858701    0.047461109    0.047324672  
    148000   2294.6139      2124.4892     -37704.247      1482.7141     -36221.533      83653.72       13.891664     -36110.608     -37704.247      1482.7141      0.045591462    0.046192505    0.051798071  
    148500   2269.342      -2563.3124     -37702.26       1466.384      -36235.876      83774.786      13.871589     -36369.907     -37702.26       1466.384       0.048974417    0.04986772     0.047454838  
    149000   2284.488       1862.6299     -37703.834      1476.1709     -36227.663      83633.026      13.895101     -36130.434     -37703.834      1476.1709      0.049421579    0.04691007     0.049497512  
    149500   2289.8863      5822.4473     -37673.572      1479.6592     -36193.913      83512.924      13.915084     -35890.419     -37673.572      1479.6592      0.046604211    0.046584401    0.048371398  
    150000   2258.3284     -6366.8599     -37667.091      1459.2674     -36207.823      83953.183      13.842112     -36541.443     -37667.091      1459.2674      0.050920722    0.047435248    0.050396727  
    150500   2294.2473      2543.7288     -37741.816      1482.4772     -36259.338      83556.479      13.907831     -36126.678     -37741.816      1482.4772      0.045800263    0.044077951    0.045958477  
    151000   2331.1388      4391.0774     -37702.453      1506.3154     -36196.138      83611.157      13.898736     -35966.985     -37702.453      1506.3154      0.050444355    0.047323522    0.04972049   
    151500   2309.0545     -701.71266     -37681.438      1492.0451     -36189.393      83750.083      13.87568      -36226.073     -37681.438      1492.0451      0.050936358    0.046040728    0.05408646   
    152000   2295.0675     -1375.7581     -37692.299      1483.0071     -36209.292      83743.703      13.876737     -36281.201     -37692.299      1483.0071      0.048946116    0.047347444    0.048522845  
    152500   2294.5593     -1370.7998     -37691.28       1482.6788     -36208.601      83767.601      13.872779     -36280.272     -37691.28       1482.6788      0.049452497    0.047053929    0.052304685  
    153000   2320.8293      640.54312     -37657.914      1499.6537     -36158.26       83746.597      13.876258     -36124.779     -37657.914      1499.6537      0.049792576    0.048686622    0.054703241  
    153500   2331.5472      1682.4654     -37690.646      1506.5792     -36184.067      83625.351      13.896377     -36096.251     -37690.646      1506.5792      0.045749028    0.048526302    0.047346856  
    154000   2281.0708     -4032.4215     -37700.514      1473.9629     -36226.551      83821.7        13.863825     -36437.517     -37700.514      1473.9629      0.05119945     0.049401175    0.050569988  
    154500   2229.766       1706.9678     -37675.14       1440.8111     -36234.329      83650.796      13.89215      -36145.207     -37675.14       1440.8111      0.047531515    0.045296759    0.053675068  
    155000   2311.0191      6825.0913     -37676.417      1493.3146     -36183.102      83604.658      13.899816     -35826.956     -37676.417      1493.3146      0.048453383    0.046160402    0.049006375  
    155500   2348.7094     -1255.4376     -37705.724      1517.669      -36188.055      83782.79       13.870263     -36253.706     -37705.724      1517.669       0.049580843    0.046852315    0.047449792  
    156000   2311.2471     -1062.8738     -37704.284      1493.4619     -36210.822      83701.381      13.883754     -36266.349     -37704.284      1493.4619      0.046328633    0.044769537    0.050227936  
    156500   2297.0697      2924.5888     -37708.428      1484.3009     -36224.127      83604.116      13.899906     -36071.518     -37708.428      1484.3009      0.046874156    0.045343954    0.049292326  
    157000   2290.6293     -4612.8341     -37690.245      1480.1393     -36210.106      83865.485      13.856587     -36451.564     -37690.245      1480.1393      0.048247151    0.046297576    0.050669917  
    157500   2351.5245      2008.0498     -37705.377      1519.4881     -36185.889      83652.902      13.8918       -36081.045     -37705.377      1519.4881      0.048719815    0.047077481    0.049294655  
    158000   2314.4144      5542.4151     -37693.351      1495.5086     -36197.843      83580.372      13.903855     -35908.713     -37693.351      1495.5086      0.049207253    0.045986201    0.050947938  
    158500   2301.8845     -6696.9711     -37671.792      1487.4121     -36184.38       83965.035      13.840158     -36535.347     -37671.792      1487.4121      0.045746557    0.046743989    0.054412857  
    159000   2331.4671     -4411.502      -37677.179      1506.5275     -36170.652      83883.465      13.853617     -36401.62      -37677.179      1506.5275      0.049000762    0.046790982    0.052710488  
    159500   2323.8301      5276.2269     -37691.362      1501.5927     -36189.769      83527.654      13.91263      -35914.699     -37691.362      1501.5927      0.050472482    0.047505326    0.049403391  
    160000   2340.3421     -539.62316     -37663.506      1512.2623     -36151.244      83771.905      13.872066     -36179.459     -37663.506      1512.2623      0.049425451    0.046074589    0.051636527  
    160500   2336.6562     -1631.9677     -37656.292      1509.8805     -36146.412      83866.476      13.856423     -36231.838     -37656.292      1509.8805      0.048341201    0.045002893    0.052170114  
    161000   2292.4242      6666.5546     -37660.364      1481.2991     -36179.064      83543.498      13.909992     -35831.445     -37660.364      1481.2991      0.047590783    0.045802986    0.048643796  
    161500   2296.5731      1287.8316     -37701.491      1483.98       -36217.511      83656.382      13.891222     -36150.268     -37701.491      1483.98        0.050516728    0.044940157    0.053403497  
    162000   2328.5467     -1114.8835     -37694.635      1504.6404     -36189.995      83754.862      13.874888     -36248.276     -37694.635      1504.6404      0.055147407    0.04685673     0.048041139  
    162500   2385.1391      1400.977      -37695.807      1541.2088     -36154.598      83689.425      13.885737     -36081.418     -37695.807      1541.2088      0.048180162    0.046871675    0.047550403  
    163000   2326.5507     -1194.1411     -37687.333      1503.3506     -36183.983      83789.533      13.869147     -36246.433     -37687.333      1503.3506      0.047841364    0.045800305    0.054366156  
    163500   2323.2717     -3944.9016     -37660.162      1501.2319     -36158.93       83889.611      13.852602     -36365.484     -37660.162      1501.2319      0.048859283    0.048273859    0.052663804  
    164000   2339.5725      9340.9194     -37656.983      1511.765      -36145.218      83482.323      13.920185     -35658.504     -37656.983      1511.765       0.04974025     0.045024467    0.046298618  
    164500   2308.5292     -1359.5425     -37701.449      1491.7057     -36209.743      83758.155      13.874343     -36280.817     -37701.449      1491.7057      0.055122024    0.046308752    0.05204411   
    165000   2316.5601     -4661.2156     -37665.907      1496.895      -36169.012      83914.281      13.848529     -36413.144     -37665.907      1496.895       0.049345799    0.048882169    0.053340519  
    165500   2376.5831      3279.8921     -37675.478      1535.6802     -36139.798      83657.379      13.891056     -35968.539     -37675.478      1535.6802      0.046273335    0.045352632    0.049186279  
    166000   2309.1022      1492.0008     -37687.559      1492.076      -36195.483      83665.384      13.889727     -36117.571     -37687.559      1492.076       0.046317735    0.044338879    0.047563372  
    166500   2323.6613     -822.33635     -37666.66       1501.4836     -36165.176      83815.252      13.864891     -36208.195     -37666.66       1501.4836      0.050521778    0.045473148    0.053788341  
    167000   2337.4117     -384.52482     -37711.975      1510.3687     -36201.606      83716.468      13.881252     -36221.698     -37711.975      1510.3687      0.050713378    0.046966625    0.04783189   
    167500   2335.4255     -2058.9202     -37689.613      1509.0853     -36180.528      83807.836      13.866118     -36288.227     -37689.613      1509.0853      0.049684505    0.04661928     0.050018385  
    168000   2371.1074     -1272.0614     -37667.139      1532.1419     -36134.997      83861.767      13.857201     -36201.58      -37667.139      1532.1419      0.049104605    0.049133973    0.053556695  
    168500   2330.4776      1211.1403     -37677.467      1505.8881     -36171.579      83723.474      13.88009      -36108.29      -37677.467      1505.8881      0.049679604    0.045671917    0.051300291  
    169000   2293.5523     -2765.9838     -37689.963      1482.028      -36207.935      83844.423      13.860068     -36352.683     -37689.963      1482.028       0.047999941    0.049261311    0.050269743  
    169500   2295.2026      707.53257     -37652.34       1483.0944     -36169.246      83744.782      13.876559     -36132.264     -37652.34       1483.0944      0.050776333    0.044472846    0.048834097  
    170000   2326.8025      3534.4664     -37652.884      1503.5134     -36149.371      83667.099      13.889443     -35964.798     -37652.884      1503.5134      0.049482489    0.047344501    0.051103393  
    170500   2313.8774     -1717.0411     -37665.02       1495.1615     -36169.858      83824.55       13.863354     -36259.692     -37665.02       1495.1615      0.048353386    0.045617907    0.052111447  
    171000   2365.8491      2634.4057     -37709.814      1528.7442     -36181.07       83590.6        13.902154     -36043.625     -37709.814      1528.7442      0.045836074    0.048170077    0.049168344  
    171500   2339.9847     -1731.4084     -37711.236      1512.0314     -36199.205      83718.28       13.880951     -36289.676     -37711.236      1512.0314      0.047713547    0.048172385    0.048739732  
    172000   2323.2156     -3236.7453     -37639.384      1501.1956     -36138.189      83941.457      13.844046     -36307.769     -37639.384      1501.1956      0.05041075     0.048451484    0.054413895  
    172500   2317.3466      4889.8104     -37631.439      1497.4033     -36134.036      83657.502      13.891036     -35878.715     -37631.439      1497.4033      0.051909523    0.045182137    0.050285434  
    173000   2339.9412      1444.1025     -37690.259      1512.0032     -36178.255      83691.076      13.885463     -36102.821     -37690.259      1512.0032      0.046406306    0.048308206    0.050281808  
    173500   2340.7489     -2724.1076     -37654.4        1512.5251     -36141.875      83841.071      13.860622     -36284.427     -37654.4        1512.5251      0.047579254    0.047356591    0.050481436  
    174000   2283.6345      253.58501     -37662.33       1475.6195     -36186.711      83741.821      13.877049     -36173.456     -37662.33       1475.6195      0.045069066    0.047287895    0.051546753  
    174500   2313.5324      198.25664     -37682.776      1494.9386     -36187.837      83715.151      13.88147      -36177.478     -37682.776      1494.9386      0.049667484    0.047211076    0.050122719  
    175000   2382.1282     -354.65121     -37659.62       1539.2633     -36120.357      83788.052      13.869392     -36138.904     -37659.62       1539.2633      0.051949829    0.046155098    0.050213208  
    175500   2380.0571     -2714.9555     -37670.108      1537.925      -36132.183      83869.966      13.855846     -36274.304     -37670.108      1537.925       0.047662251    0.044743601    0.05377936   
    176000   2298.7847      933.25351     -37683.038      1485.4091     -36197.629      83704.39       13.883255     -36148.872     -37683.038      1485.4091      0.046056627    0.046196727    0.050741693  
    176500   2336.5602      967.4936      -37643.093      1509.8186     -36133.275      83789.431      13.869164     -36082.677     -37643.093      1509.8186      0.046283162    0.047438422    0.052306337  
    177000   2438.4158     -2250.5884     -37683.535      1575.6347     -36107.901      83818.455      13.864362     -36225.641     -37683.535      1575.6347      0.049274229    0.047915395    0.052334479  
    177500   2331.9327     -1493.806      -37702.662      1506.8284     -36195.833      83728.577      13.879244     -36273.898     -37702.662      1506.8284      0.049429672    0.04425143     0.047885811  
    178000   2344.0241     -2078.633      -37661.056      1514.6415     -36146.414      83819.713      13.864154     -36255.161     -37661.056      1514.6415      0.04792986     0.044525329    0.050737581  
    178500   2372.8122      36.759739     -37655.33       1533.2435     -36122.087      83762.863      13.873563     -36120.165     -37655.33       1533.2435      0.048865442    0.046811942    0.050799328  
    179000   2382.4581     -2382.1489     -37631.256      1539.4765     -36091.779      83871.984      13.855513     -36216.482     -37631.256      1539.4765      0.046090718    0.04638458     0.051843692  
    179500   2321.69       -5277.3929     -37633.019      1500.2098     -36132.809      83923.996      13.846926     -36409.245     -37633.019      1500.2098      0.048657974    0.049362821    0.053440642  
    180000   2385.8843      2567.8046     -37624.943      1541.6903     -36083.253      83758.279      13.874322     -35949.014     -37624.943      1541.6903      0.049945209    0.045513907    0.052288942  
    180500   2377.3355     -3918.9113     -37671.508      1536.1664     -36135.342      83845.641      13.859866     -36340.428     -37671.508      1536.1664      0.05160637     0.048084399    0.052276464  
    181000   2360.3721     -4557.2385     -37616.491      1525.2051     -36091.286      84055.394      13.82528      -36330.373     -37616.491      1525.2051      0.049814165    0.049135486    0.056241689  
    181500   2405.0931      3720.5748     -37639.773      1554.1026     -36085.67       83708.244      13.882616     -35891.283     -37639.773      1554.1026      0.046890925    0.049231206    0.051706787  
    182000   2349.3644      2192.6245     -37689.131      1518.0923     -36171.039      83668.861      13.88915      -36056.535     -37689.131      1518.0923      0.048666181    0.047948636    0.048711379  
    182500   2362.4004     -1640.4776     -37635.599      1526.5157     -36109.083      83886.734      13.853077     -36194.975     -37635.599      1526.5157      0.052627371    0.047581988    0.050671298  
    183000   2388.4905     -2301.4056     -37626.607      1543.3744     -36083.232      83973.571      13.838751     -36203.854     -37626.607      1543.3744      0.051454787    0.047587546    0.053653661  
    183500   2342.5721     -1264.3865     -37634.585      1513.7033     -36120.882      83843.39       13.860238     -36187.048     -37634.585      1513.7033      0.049051336    0.050268534    0.054461869  
    184000   2349.4742      1887.6926     -37645.755      1518.1632     -36127.591      83693.95       13.884987     -36028.983     -37645.755      1518.1632      0.047631382    0.047262241    0.047532022  
    184500   2390.1801     -406.68494     -37648.657      1544.4662     -36104.191      83813.347      13.865207     -36125.466     -37648.657      1544.4662      0.050361241    0.050570538    0.048304552  
    185000   2344.7121     -3825.7031     -37651.432      1515.0861     -36136.346      83906.099      13.84988      -36336.698     -37651.432      1515.0861      0.051087639    0.049204057    0.053573862  
    185500   2316.5362     -913.80279     -37651.186      1496.8796     -36154.306      83788.754      13.869276     -36202.095     -37651.186      1496.8796      0.049944105    0.047263218    0.050179262  
    186000   2378.2297      3312.0613     -37658.183      1536.7442     -36121.439      83630.626      13.8955       -35948.556     -37658.183      1536.7442      0.048119794    0.049606935    0.048596312  
[...]
   2955500   6019.3594     -1483.9707     -31211.041      3889.5383     -27321.503      101400.56      11.460384     -27415.423     -31211.041      3889.5383      4356.1399      4469.5016      4117.0078    
   2956000   6011.0463      2490.0935     -31263.712      3884.1666     -27379.545      100909.37      11.516169     -27222.712     -31263.712      3884.1666      4345.2014      4457.6139      4108.133     
   2956500   6022.8557     -2607.4148     -31186.054      3891.7975     -27294.256      102015.74      11.391275     -27460.279     -31186.054      3891.7975      4373.7947      4492.4497      4136.3129    
   2957000   5940.3896      3528.6881     -31158.401      3838.5102     -27319.89       101343.01      11.466892     -27096.689     -31158.401      3838.5102      4356.0212      4476.1094      4118.3704    
   2957500   5945.4884      1105.9067     -31219.31       3841.8049     -27377.505      101006.09      11.505141     -27307.785     -31219.31       3841.8049      4350.4812      4466.9908      4108.9682    
   2958000   5855.1052     -4244.0221     -31090.196      3783.4019     -27306.794      102158.25      11.375384     -27577.402     -31090.196      3783.4019      4383.4381      4500.5705      4141.3987    
   2958500   6036.4856      133.31251     -31241.421      3900.6047     -27340.816      101546.02      11.443968     -27332.367     -31241.421      3900.6047      4368.4633      4484.9699      4128.6984    
   2959000   5843.2307     -4364.8501     -31084.952      3775.7289     -27309.223      102060.03      11.386332     -27587.268     -31084.952      3775.7289      4385.7108      4501.9014      4140.0603    
   2959500   5904.421       1917.8361     -31243.823      3815.2684     -27428.554      101507.29      11.448334     -27307.048     -31243.823      3815.2684      4370.0422      4486.6153      4124.097     
   2960000   5954.0462     -6762.5361     -31318.371      3847.3347     -27471.036      101192.56      11.483941     -27898.154     -31318.371      3847.3347      4358.6813      4475.3251      4115.1556    
   2960500   5991.9616     -4910.1209     -31212.342      3871.8346     -27340.508      101921.83      11.401771     -27652.863     -31212.342      3871.8346      4380.7978      4498.045       4136.5387    
   2961000   6003.2804     -647.27923     -31218.208      3879.1485     -27339.059      101601.08      11.437766     -27380.106     -31218.208      3879.1485      4371.0793      4487.5383      4131.2467    
   2961500   5946.6847      3031.0281     -31327.686      3842.5779     -27485.108      100549.3       11.557408     -27294.887     -31327.686      3842.5779      4342.3653      4458.6648      4102.3627    
   2962000   5964.6606     -1524.3947     -31127.082      3854.1935     -27272.889      101929.85      11.400873     -27369.87      -31127.082      3854.1935      4382.5346      4498.267       4143.3061    
   2962500   5971.8097      4828.4354     -31181.984      3858.813      -27323.171      101340.67      11.467157     -27017.763     -31181.984      3858.813       4368.0237      4482.9469      4128.7323    
   2963000   6000.9561     -1554.7984     -31124.026      3877.6466     -27246.38       102059.04      11.386443     -27345.421     -31124.026      3877.6466      4391.7583      4506.5186      4154.3136    
   2963500   6004.5         1138.3777     -31173.565      3879.9366     -27293.629      101614.41      11.436265     -27221.43      -31173.565      3879.9366      4378.6246      4497.8531      4144.1836    
   2964000   6110.3191     -3706.9705     -31280.758      3948.3139     -27332.444      101322.29      11.469237     -27566.874     -31280.758      3948.3139      4372.5328      4495.1019      4136.6553    
   2964500   5939.1551     -1801.3633     -31377.861      3837.7125     -27540.149      101066.65      11.498247     -27653.78      -31377.861      3837.7125      4366.1399      4488.1562      4130.9289    
   2965000   6081.0406      2553.6975     -31244.891      3929.3949     -27315.496      100966.93      11.509604     -27154.565     -31244.891      3929.3949      4366.3296      4486.8239      4129.777     
   2965500   5900.3948      638.88006     -31292.174      3812.6668     -27479.507      100872.91      11.520332     -27439.283     -31292.174      3812.6668      4366.2179      4485.6908      4128.2873    
   2966000   6011.2455     -3725.7363     -31264.646      3884.2953     -27380.351      101869.9       11.407583     -27617.241     -31264.646      3884.2953      4396.1752      4515.0052      4157.672     
   2966500   5931.6954      4490.7084     -31271.174      3832.8923     -27438.282      100973.06      11.508905     -27155.267     -31271.174      3832.8923      4370.0301      4490.5312      4134.4121    
   2967000   6046.7244      2168.5899     -31180.73       3907.2208     -27273.509      101621.86      11.435427     -27135.961     -31180.73       3907.2208      4390.4429      4513.2531      4154.3394    
   2967500   6027.6206      3087.6391     -31164.721      3894.8764     -27269.845      101411.16      11.459186     -27074.41      -31164.721      3894.8764      4386.8489      4507.1303      4147.263     
   2968000   5906.0473     -217.41838     -31239.537      3816.3192     -27423.217      101314.76      11.47009      -27436.966     -31239.537      3816.3192      4384.1165      4507.6931      4145.041     
   2968500   5919.3103      929.01486     -31167.392      3824.8894     -27342.502      101474.74      11.452006     -27283.663     -31167.392      3824.8894      4391.9805      4514.4686      4153.4201    
   2969000   6086.2718     -255.43146     -31204.879      3932.7752     -27272.104      101585.55      11.439514     -27288.299     -31204.879      3932.7752      4396.5615      4516.7189      4160.5098    
   2969500   6150.2647      3591.7612     -31227.1        3974.1256     -27252.974      101597.54      11.438164     -27025.213     -31227.1        3974.1256      4394.7927      4521.0144      4165.3572    
   2970000   5965.5038     -5281.1685     -31091.061      3854.7384     -27236.322      102232.63      11.367108     -27573.306     -31091.061      3854.7384      4415.048       4540.3997      4183.1508    
   2970500   5885.6722      1405.6268     -31190.368      3803.1534     -27387.214      101476.71      11.451784     -27298.187     -31190.368      3803.1534      4394.2568      4521.9955      4160.7765    
   2971000   6023.3928     -5107.121      -31185.341      3892.1446     -27293.196      101902.23      11.403964     -27618.021     -31185.341      3892.1446      4409.2188      4538.975       4175.2482    
   2971500   5988.0786     -755.64662     -31196.468      3869.3255     -27327.142      101111.12      11.49319      -27374.83      -31196.468      3869.3255      4390.4782      4514.2938      4152.7498    
   2972000   6012.3189     -121.4723      -31257.431      3884.9889     -27372.442      101207.09      11.482292     -27380.116     -31257.431      3884.9889      4390.7286      4521.0028      4156.2986    
   2972500   5923.0352      2347.6176     -31287.395      3827.2963     -27460.099      100657.1       11.545032     -27312.609     -31287.395      3827.2963      4379.6457      4507.4659      4138.0585    
   2973000   6081.165      -293.62816     -31158.381      3929.4753     -27228.906      101585.73      11.439495     -27247.523     -31158.381      3929.4753      4406.4681      4535.1743      4162.805     
   2973500   6098.8469      2808.8669     -31137.206      3940.9008     -27196.305      101441.54      11.455754     -27018.463     -31137.206      3940.9008      4402.1657      4532.503       4159.1829    
   2974000   6052.3524     -59.122299     -31147.967      3910.8574     -27237.11       101866.91      11.407918     -27240.869     -31147.967      3910.8574      4419.0753      4552.8394      4175.6028    
   2974500   6069.083      -1053.3802     -31211.581      3921.6682     -27289.913      101585.91      11.439474     -27356.703     -31211.581      3921.6682      4409.5288      4546.9744      4174.0534    
   2975000   6080.3997      1669.164      -31217.914      3928.9808     -27288.933      101331.77      11.468164     -27183.365     -31217.914      3928.9808      4401.9868      4537.8732      4166.3512    
   2975500   6032.5699      6358.2346     -31205.588      3898.0745     -27307.514      100847.63      11.523219     -26907.3       -31205.588      3898.0745      4390.5955      4525.5717      4151.3442    
   2976000   6004.1177     -3799.5488     -31124.928      3879.6895     -27245.239      102255.58      11.364558     -27487.737     -31124.928      3879.6895      4431.1136      4571.874       4191.1336    
   2976500   5893.8702      976.79725     -31160.259      3808.4508     -27351.808      101502.81      11.448839     -27289.925     -31160.259      3808.4508      4413.7084      4550.2815      4173.6225    
   2977000   5964.6697     -8345.2412     -31212.044      3854.1993     -27357.845      102396.17      11.348954     -27891.195     -31212.044      3854.1993      4441.6395      4578.4148      4201.4231    
   2977500   5917.0024      3325.4302     -31135.133      3823.3981     -27311.735      101478.24      11.451612     -27101.11      -31135.133      3823.3981      4412.1048      4551.9399      4176.5517    
   2978000   6002.4213     -2604.2309     -31194.457      3878.5934     -27315.864      101879.9       11.406463     -27481.463     -31194.457      3878.5934      4426.86        4563.9346      4190.074     
   2978500   6051.4689     -2652.2031     -31253.928      3910.2865     -27343.641      101353.65      11.465688     -27511.42      -31253.928      3910.2865      4414.3504      4549.0243      4176.3687    
   2979000   6070.1362     -736.37152     -31216.443      3922.3488     -27294.094      101146.89      11.489126     -27340.582     -31216.443      3922.3488      4412.2296      4545.0393      4175.447     
   2979500   6086.7644      1772.0681     -31114.115      3933.0935     -27181.022      101824.87      11.412628     -27068.399     -31114.115      3933.0935      4436.277       4566.7068      4198.4192    
   2980000   5904.9856     -841.82102     -31292.462      3815.6332     -27476.829      101456.3       11.454087     -27530.136     -31292.462      3815.6332      4422.5476      4561.0568      4191.5643    
   2980500   5983.4758     -3358.433      -31288.801      3866.3513     -27422.45       101610.45      11.436711     -27635.442     -31288.801      3866.3513      4431.823       4565.2019      4192.7088    
   2981000   5997.8737     -5072.2054     -31219.313      3875.6549     -27343.658      101602.9       11.437561     -27665.315     -31219.313      3875.6549      4433.7509      4566.1758      4197.1304    
   2981500   5995.8748      2735.9857     -31176.484      3874.3632     -27302.12       101135.72      11.490394     -27129.414     -31176.484      3874.3632      4417.7231      4550.6771      4184.5883    
   2982000   5874.9913      3218.4325     -31285.629      3796.2517     -27489.377      100612.6       11.550138     -27287.268     -31285.629      3796.2517      4401.9172      4533.7131      4172.5261    
   2982500   5926.8078     -6316.5505     -31107.251      3829.7341     -27277.517      102175.18      11.3735       -27680.34      -31107.251      3829.7341      4449.6118      4584.7975      4216.5069    
   2983000   6048.315       7628.4228     -31314.802      3908.2486     -27406.554      100623.23      11.548918     -26927.458     -31314.802      3908.2486      4408.6817      4538.6968      4176.9215    
   2983500   5997.0473     -3093.3908     -31135.947      3875.1208     -27260.827      102449.95      11.342996     -27458.631     -31135.947      3875.1208      4463.5038      4596.3384      4232.8976    
   2984000   5945.5156     -1492.6388     -31113.129      3841.8225     -27271.306      101940.72      11.399659     -27366.278     -31113.129      3841.8225      4449.7903      4583.3759      4216.7095    
   2984500   5956.5171      955.72663     -31254.972      3848.9314     -27406.04       101383.07      11.462361     -27345.564     -31254.972      3848.9314      4437.6357      4565.9085      4202.2336    
   2985000   5976.1725      724.99583     -31098.956      3861.6321     -27237.324      101949.98      11.398623     -27191.191     -31098.956      3861.6321      4456.5364      4583.2402      4218.1804    
   2985500   5879.0425     -4333.5121     -31168.666      3798.8695     -27369.796      101815.79      11.413646     -27645.184     -31168.666      3798.8695      4457.6771      4579.5029      4216.159     
   2986000   5961.5094     -4603.4829     -31305.177      3852.1572     -27453.019      101338.43      11.467411     -27744.192     -31305.177      3852.1572      4446.95        4564.5694      4200.2206    
   2986500   5997.9763      3773.8081     -31204.223      3875.7211     -27328.502      101379.99      11.46271      -27089.709     -31204.223      3875.7211      4450.6312      4569.9965      4199.9501    
   2987000   6001.2895     -3906.5362     -31302.524      3877.862      -27424.662      101344.22      11.466755     -27671.767     -31302.524      3877.862       4449.7986      4570.1354      4198.8586    
   2987500   5983.0734     -3054.6941     -31175.324      3866.0913     -27309.232      102037.81      11.388811     -27503.777     -31175.324      3866.0913      4469.6268      4590.8227      4218.6461    
   2988000   6063.8505     -1098.7111     -31238.125      3918.2871     -27319.838      101396.09      11.460889     -27389.372     -31238.125      3918.2871      4454.3451      4575.4937      4203.0039    
   2988500   6063.8726      5275.3212     -31296.251      3918.3014     -27377.949      100851.06      11.522827     -27045.888     -31296.251      3918.3014      4444.5668      4556.6379      4191.734     
   2989000   6101.2427      3423.8368     -31142.337      3942.4489     -27199.888      101544.33      11.444159     -26982.889     -31142.337      3942.4489      4472.1108      4578.9486      4214.2141    
   2989500   5927.6771     -254.90503     -31198.117      3830.2958     -27367.821      101474.46      11.452038     -27383.966     -31198.117      3830.2958      4472.6337      4579.3388      4217.2732    
   2990000   5919.9533      859.32294     -31219.33       3825.3049     -27394.025      101340         11.467233     -27339.671     -31219.33       3825.3049      4467.9295      4579.4672      4215.0197    
   2990500   5833.2349     -2421.2677     -31236.638      3769.2699     -27467.369      101511.51      11.447859     -27620.776     -31236.638      3769.2699      4474.2824      4583.6314      4218.9553    
   2991000   5893.1101     -5105.7709     -31348.713      3807.9596     -27540.753      101142.15      11.489665     -27863.07      -31348.713      3807.9596      4465.5559      4576.1098      4209.2732    
   2991500   6136.4694     -3659.5855     -31324.571      3965.2114     -27359.359      101164.06      11.487176     -27590.432     -31324.571      3965.2114      4470.0522      4575.0187      4211.3784    
   2992000   5836.2534     -2160.0028     -31105.877      3771.2204     -27334.656      102025.94      11.390136     -27472.204     -31105.877      3771.2204      4496.4708      4602.7784      4239.6792    
   2992500   5891.3428     -131.57066     -31221.855      3806.8176     -27415.037      101548.44      11.443695     -27423.376     -31221.855      3806.8176      4483.7918      4589.5995      4229.4987    
   2993000   6036.5933      3058.8339     -31085.788      3900.6744     -27185.113      101804.75      11.414884     -26990.75      -31085.788      3900.6744      4494.626       4596.4464      4234.307     
   2993500   6041.5186      3319.7389     -31233.377      3903.8569     -27329.52       100952.16      11.511288     -27120.345     -31233.377      3903.8569      4468.7837      4569.7167      4207.5437    
   2994000   6009.6336      16.738093     -31255.314      3883.2537     -27372.061      100931.39      11.513657     -27371.006     -31255.314      3883.2537      4468.6516      4566.889       4203.9193    
   2994500   6021.9569      7244.6212     -31243.718      3891.2167     -27352.501      100932.46      11.513535     -26896.111     -31243.718      3891.2167      4473.0263      4567.3598      4206.1364    
   2995000   5974.1907     -2450.0716     -31225.358      3860.3515     -27365.006      101690.04      11.42776      -27520.512     -31225.358      3860.3515      4497.3131      4595.5507      4226.4036    
   2995500   6000.022      -5014.7437     -31105.567      3877.043      -27228.524      102427.36      11.345497     -27549.117     -31105.567      3877.043       4521.1466      4620.7224      4251.9902    
   2996000   5923.0556      5050.0906     -31190.359      3827.3095     -27363.049      101297.88      11.472001     -27043.756     -31190.359      3827.3095      4486.6419      4589.9948      4222.3328    
   2996500   5941.9689      1213.7294     -31290.5        3839.5307     -27450.969      101137.89      11.490148     -27374.352     -31290.5        3839.5307      4483.0628      4586.7536      4218.1562    
   2997000   5940.8197     -2538.4586     -31367.968      3838.7882     -27529.18       100957.57      11.510671     -27689.135     -31367.968      3838.7882      4479.4163      4583.4783      4215.225     
   2997500   6082.1931     -3724.683      -31186.476      3930.1396     -27256.336      101816.94      11.413516     -27493.037     -31186.476      3930.1396      4505.8126      4609.5053      4240.3568    
   2998000   6034.7283     -891.95561     -31240.176      3899.4692     -27340.706      101397.21      11.460763     -27397.156     -31240.176      3899.4692      4496.1775      4596.6246      4229.2254    
   2998500   5978.8772      100.88286     -31255.635      3863.3799     -27392.255      101287.35      11.473193     -27385.877     -31255.635      3863.3799      4493.9536      4598.2805      4228.4635    
   2999000   6038.0021      3902.9411     -31225.041      3901.5847     -27323.456      101226.75      11.480062     -27076.865     -31225.041      3901.5847      4497.9746      4595.9623      4227.7504    
   2999500   6049.9998      656.44605     -31052.749      3909.3372     -27143.411      102182.69      11.372664     -27101.545     -31052.749      3909.3372      4527.4012      4625.4455      4257.6363    
   3000000   6054.3405      5865.8566     -31277.12       3912.142      -27364.978      100724.43      11.537314     -26996.208     -31277.12       3912.142       4487.0678      4581.0377      4218.2269    
Loop time of 510.21 on 40 procs for 1000000 steps with 5000 atoms

Performance: 169.342 ns/day, 0.142 hours/ns, 1959.977 timesteps/s, 9.800 Matom-step/s
95.8% CPU use with 40 MPI tasks x 1 OpenMP threads

MPI task timing breakdown:
Section |  min time  |  avg time  |  max time  |%varavg| %total
---------------------------------------------------------------
Pair    | 325.06     | 330.89     | 340        |  20.5 | 64.85
Neigh   | 6.7081     | 6.7806     | 6.8967     |   1.6 |  1.33
Comm    | 101.57     | 112.11     | 118.71     |  40.0 | 21.97
Output  | 0.24924    | 0.36774    | 1.3551     |  27.6 |  0.07
Modify  | 47.825     | 49.565     | 52.72      |  17.1 |  9.71
Other   |            | 10.5       |            |       |  2.06

Nlocal:            125 ave         139 max         116 min
Histogram: 3 4 5 13 5 4 4 1 0 1
Nghost:        1036.15 ave        1067 max        1006 min
Histogram: 1 0 4 9 4 10 8 2 1 1
Neighs:        4957.62 ave        5599 max        4328 min
Histogram: 1 1 2 8 7 10 5 4 1 1

Total # of neighbors = 198305
Ave neighs/atom = 39.661
Neighbor list builds = 30433
Dangerous builds = 0
	unfix           fholdhigh


# ----- FINAL OUTPUT -----
	write_data      W-Mo_6000K.data
System init for write_data ...



Total wall time: 0:28:31
