LAMMPS data file via write_data, version 2 Aug 2023, timestep = 500000, units = metal

5000 atoms
2 atom types

-0.28465543830635376 31.934655439015202 xlo xhi
-0.2386478875413669 31.888647888256145 ylo yhi
-0.5455059887293601 79.67050598872933 zlo zhi

Atom Type Labels

1 W
2 Mo

Masses

1 183.85
2 95.94

Atoms # atomic

223 1 2.862108526689426 3.0098150602430476 2.6817195660813606 0 0 0
2 2 1.27391473345891 1.3577680017467608 1.1590558656678027 0 0 0
511 2 15.561467270573003 15.804077110509114 6.133511344241481 0 0 0
281 1 -0.03650694594060816 12.493286358942782 2.821436688523404 0 0 0
225 1 5.997093923405415 3.0234574532310416 2.9300184225791637 0 0 0
4 1 4.530687825258082 1.5626745031197882 1.065823712740911 0 0 0
6 2 7.693351928221877 1.5784225222872514 1.1472907079349914 0 0 0
227 2 9.323391189516721 2.9218480061048075 2.6237948250007377 0 0 0
8 2 10.92621774978018 1.3499885297454386 1.2565546658788411 0 0 0
507 1 9.144843079723579 15.760502184185174 5.80105776798488 0 0 0
231 1 15.646917060855966 2.9319780505982886 2.6926033722997413 0 0 0
229 2 12.592098770582886 2.699535665779476 2.911681713622252 0 0 0
10 1 14.170845845716508 1.4483177215683636 0.8786441129595406 0 0 0
63 1 3.1477642236604937 9.194351098233264 -0.513633709195441 0 0 0
305 1 5.968872503287334 15.661001412028845 2.210876008207172 0 0 0
243 1 2.9876886483710074 6.193731493280168 2.5369067638630565 0 0 0
22 1 1.248840246104569 4.455180663559027 0.9658252620364773 0 0 0
42 2 1.226651194810034 7.886830308426543 1.3218974157663606 0 0 0
290 2 14.160608855969658 14.32725636277668 4.450023528089147 0 0 0
431 1 15.731201312177932 2.9795997508625733 5.811787437960288 0 0 0
245 1 6.138566729319202 6.081695352316926 2.5126713182942284 0 0 0
24 1 4.548835564683209 4.62024095758869 0.9756645800006583 0 0 0
44 1 4.629689649732459 7.737854025423302 1.0473361125284206 0 0 0
26 2 7.6613877325510655 4.627651049452711 1.185870359422741 0 0 0
505 2 6.068901585301164 15.743064892145068 6.042290271233366 0 0 0
247 1 9.574120830113687 6.217707892966632 2.7521506437879784 0 0 0
28 2 11.023652013563366 4.376918872565978 1.0099208901990642 0 0 0
249 2 12.609030614203894 6.088787200803895 2.8198031676244764 0 0 0
30 1 14.091433492724354 4.457594820052162 0.867777960799907 0 0 0
491 2 15.642709424866736 12.799086649714749 5.9683233605543204 0 0 0
29 1 12.39104808827154 2.7975488899159746 -0.3886544823713473 0 0 0
263 1 3.0131330480607477 9.332322718505619 2.965621816939982 0 0 0
62 1 1.584661228963824 10.931613436900179 0.9754446486382689 0 0 0
489 1 12.489696395256935 12.50315065555213 5.792950176596772 0 0 0
265 2 6.187209407021784 9.126305651190126 2.710759390020042 0 0 0
64 2 4.598998080490995 10.960988209528637 0.9973009900983996 0 0 0
66 2 7.7172545270209945 10.524337953615463 1.0271062978958414 0 0 0
411 2 15.676866984199116 -0.1685283705892786 5.896718200238756 0 0 0
48 1 11.162079369329918 7.633250781641716 1.2593334756775107 0 0 0
46 1 7.894881200719194 7.744555194564552 1.206511214794858 0 0 0
267 1 9.617808345697314 9.457298756613133 2.4843028512845815 0 0 0
68 2 11.07237354862298 10.918619939984993 0.8969377026119583 0 0 0
221 2 -0.18887173131052037 2.7679054036346336 2.7535107766113254 0 0 0
50 1 14.104406073412276 7.7146079473526825 1.1493242350361836 0 0 0
269 1 12.703322192169889 9.239197871061865 2.749329504847489 0 0 0
70 2 14.185187227628884 10.968136525043393 1.2613569437124108 0 0 0
283 1 2.8165027217474004 12.605232305273693 2.7862834394545253 0 0 0
82 2 1.1150525693255942 14.27162897468945 1.1045221985589506 0 0 0
311 1 15.699968096660543 15.80980557269079 2.685073980598709 0 0 0
285 1 5.998883949287406 12.580687793450771 2.628074216800232 0 0 0
84 2 4.4125575640518635 14.334117599112073 1.0275430752168937 0 0 0
86 1 7.6721785402950085 14.230652485325047 0.800261410915303 0 0 0
203 2 3.07225023230986 -0.1087934551023513 2.3951344198965114 0 0 0
69 2 12.694182208812112 9.03010442814117 -0.503816283297625 0 0 0
287 2 9.40428240888048 12.658954362722685 2.5969250061583504 0 0 0
88 1 10.863684279421289 14.145279358499558 1.0775640020625068 0 0 0
289 2 12.346813917668594 12.706770919712387 2.7483115938451497 0 0 0
90 1 14.197451043476216 14.17727292229629 1.0676687557175424 0 0 0
202 2 1.3649158658656784 1.1859700390526655 4.481618002131328 0 0 0
423 1 3.0888972957537013 2.9599415696484934 5.871649795179322 0 0 0
509 1 12.426221863243152 15.805482792339435 5.879048263669832 0 0 0
47 2 9.429623701403111 6.192011479040986 -0.42526592798359486 0 0 0
204 1 4.482751579307265 1.2619642554033763 4.254145616917379 0 0 0
425 2 6.204532675927541 2.985148350602784 5.858658037972998 0 0 0
206 2 7.716872343115105 1.0365943644881255 4.096377448838351 0 0 0
488 1 10.843468753304709 14.040447306622829 7.380231529308696 0 0 0
251 2 15.824570728938072 5.980845795480831 2.61894987287609 0 0 0
208 1 10.927700949896304 1.1796705699495742 4.328856501802211 0 0 0
427 2 9.328511407327154 2.622525968900161 5.854803235514219 0 0 0
210 2 14.29951783523798 1.2853614541615825 4.3223726949045105 0 0 0
429 1 12.389237867003784 2.8088477731044987 6.064793302855397 0 0 0
487 1 9.117976769518997 12.43749177973795 5.800017354848646 0 0 0
222 1 1.131384705159015 4.91232615934025 4.17023430123734 0 0 0
443 1 2.8128070315487026 6.3827103916401375 5.679665992304488 0 0 0
468 2 10.825594808930147 10.773767374719393 7.370770894708405 0 0 0
481 2 -0.14666136442375513 12.71248548120162 6.048126261022149 0 0 0
442 2 1.281517844669126 7.8743894088799244 7.419698704783529 0 0 0
224 1 4.4896160533260305 4.580107726575051 4.479549333114784 0 0 0
445 2 6.161759503111407 6.212400208840442 5.802637440101871 0 0 0
226 1 7.489723986648327 4.750227027495433 4.4149674864693225 0 0 0
244 1 4.516190496963742 7.529437906132807 4.190901668414244 0 0 0
228 2 10.968585133552075 4.416580472697639 4.426107151055113 0 0 0
447 1 9.32068683200146 6.366556414519012 5.81260279149764 0 0 0
248 1 11.023483186342881 7.769053379647996 4.268550425466567 0 0 0
402 1 1.2104227548023065 1.321308691120933 7.411559051999557 0 0 0
426 1 7.648209687445245 4.518687480415037 7.416497262528139 0 0 0
23 1 3.011963083714759 2.9549914818504335 -0.5440610622585861 0 0 0
250 1 14.363669791499806 7.607157017499804 4.1453779917326266 0 0 0
449 1 12.616457394305824 6.287746597878086 5.719504991240842 0 0 0
230 2 14.183335336007907 4.427262565160968 4.268302549317681 0 0 0
288 1 10.80945179113236 14.368078525012502 4.230537435673697 0 0 0
282 2 1.24478545185828 14.36289352911123 4.244785706921147 0 0 0
242 2 1.1879551529653642 7.934223430712864 4.2284591824409015 0 0 0
262 1 1.213746359223777 10.591648031569658 4.370255792695648 0 0 0
463 1 3.0226599838710975 9.272229541219877 5.945096561762063 0 0 0
465 1 6.423104641191903 9.42474813918962 5.952021621781906 0 0 0
264 2 4.455558161271906 11.12150377444784 4.34767838454818 0 0 0
485 1 6.128391436145997 12.874671612224123 5.9646723351508415 0 0 0
266 2 7.782001144133062 10.85386913072354 4.131299057492473 0 0 0
246 2 7.832412619830945 7.743819539963883 4.035514266798751 0 0 0
467 1 9.324511518488933 9.297899834969265 5.849865559814166 0 0 0
268 2 11.031155415366033 10.807809688183408 4.2513155863636705 0 0 0
286 1 7.604923336564174 14.354880786328133 4.003368671497887 0 0 0
270 1 14.102529981107386 11.190725407217094 4.124211020154635 0 0 0
469 2 12.771627024391963 9.356241430718379 5.788046521605288 0 0 0
284 1 4.381238683736225 14.296989885523784 4.263447782634085 0 0 0
483 1 2.8614125619282715 12.768254021981756 5.765203277375856 0 0 0
451 2 15.751336550176243 6.353978539814597 5.93338742910146 0 0 0
309 2 12.378145354308776 15.791189879430176 2.6232911407453767 0 0 0
464 1 4.394284372797406 10.95878453109958 7.332604709167869 0 0 0
406 1 7.661345740725356 1.0708219419595266 7.323095790544146 0 0 0
428 1 10.961219128470338 4.509439699320501 7.430563390493153 0 0 0
430 1 14.24513518712951 4.711110777298307 7.331562775553692 0 0 0
209 2 12.760733812374637 -0.1529385182214824 2.7561480356182173 0 0 0
424 1 4.47150905594863 4.614535025606619 7.299716824551392 0 0 0
470 1 14.196668821128043 11.025657593209084 7.423316110292353 0 0 0
87 1 9.374623135916044 12.506865584954673 -0.46479380048931407 0 0 0
89 1 12.347399367877204 12.587651132527983 -0.490837086682067 0 0 0
85 2 6.1601180760416385 12.587624946377746 -0.4557143360233997 0 0 0
43 1 2.884910748571729 6.229649017044915 -0.4001360469697429 0 0 0
471 2 15.788385597202426 9.320731534247635 5.585606603077245 0 0 0
421 2 -0.19175042514530105 3.017605820653339 5.92929759324329 0 0 0
291 2 15.752245532210717 12.52427346885419 2.647945550353605 0 0 0
450 1 14.351449259254894 7.898247929055879 7.345128420851105 0 0 0
83 1 2.95278759901101 12.592807408807396 -0.49408868683090645 0 0 0
623 1 2.9806837996116204 2.8687770790782285 9.130922841381887 0 0 0
602 1 1.2715954116856187 1.502133829112797 10.579221521972263 0 0 0
809 1 12.302910513944363 -0.0986507081007108 12.12491812708707 0 0 0
609 1 12.45684230272068 -0.1981087681036625 9.111845749626454 0 0 0
905 2 6.22535243807034 15.778525886408465 12.15936855532186 0 0 0
625 1 6.029781250536548 3.0679832446828623 8.894482074952927 0 0 0
604 2 4.414192716058687 1.389910834319624 10.679657381110594 0 0 0
606 2 7.660089274711729 1.4561234005455592 10.556661828275516 0 0 0
627 1 9.261466327532021 2.8911804115104913 8.84850490943969 0 0 0
608 1 10.98136786532025 1.5802515732637938 10.533370224620048 0 0 0
871 2 15.77014566386181 9.23661671671129 12.497349190365759 0 0 0
651 1 15.62808000058892 6.434461275064154 9.156146844213444 0 0 0
629 2 12.625058037543605 3.366209501704442 9.089297661807441 0 0 0
610 2 14.132109078071647 1.5214014969581355 10.680958118629164 0 0 0
605 1 6.061286530456926 -0.07389654940157858 9.178592599505004 0 0 0
643 2 2.9248766632524537 6.059725804869293 8.963844437804497 0 0 0
622 1 1.2033349398022286 4.458258709208089 10.839088210397252 0 0 0
642 2 1.3379690245954796 7.802129393513253 10.585866085963886 0 0 0
907 2 9.245670432173288 15.728181890288136 12.336214453585201 0 0 0
482 1 1.5037597376441967 14.382314795225334 7.58426034527508 0 0 0
645 1 6.183779739649916 6.156659662028858 9.229010333861048 0 0 0
624 1 4.611380767240665 4.658727650361587 10.7709297385454 0 0 0
644 1 4.22860445455994 7.849730851765337 10.782991810658176 0 0 0
626 2 7.870903550468459 4.441264935184064 10.688316243191379 0 0 0
647 1 9.36187920096954 6.077994225093551 8.896637584686447 0 0 0
628 2 10.863963058906961 4.338080359433257 10.513685842535121 0 0 0
646 2 7.676395121449305 7.738871536934478 10.634263926443543 0 0 0
1089 1 12.235882205991969 12.804356608981182 15.486973756290428 0 0 0
649 2 12.668847608253431 6.239428267966975 9.109867250418993 0 0 0
630 2 14.300434743344299 4.6652665858996025 10.552089415495747 0 0 0
663 2 3.0559034287339717 9.434852698737082 9.003904648570046 0 0 0
662 2 1.0516393588406092 10.908858964609546 10.473777606413224 0 0 0
891 2 15.539419435108629 12.574229536490519 12.046953318952987 0 0 0
1105 1 6.037160427953407 15.771813831531121 15.310928799798786 0 0 0
665 1 6.0815550182491585 9.462902570156887 9.272317176630938 0 0 0
664 1 4.388822623412909 10.617936174835185 10.86303191946356 0 0 0
666 1 7.80806929370269 11.114626658615693 10.663081112998288 0 0 0
1001 2 -0.22152397246829025 0.006229569547224589 15.353197659993231 0 0 0
410 1 14.178771870700206 1.5324327412924625 7.509457208743099 0 0 0
422 2 1.4525858407234116 4.270738832867871 7.5531577475178135 0 0 0
648 1 10.945711529200274 7.414015442016138 10.67335366481689 0 0 0
667 2 9.50544782312625 9.30972097809548 9.165648263359238 0 0 0
668 2 11.236851680685032 10.880186798164488 10.50537230193355 0 0 0
807 2 9.239343149599314 0.1234311363648729 12.131503134290588 0 0 0
869 2 12.566397239036686 9.387626346975011 12.223450717472717 0 0 0
890 2 14.324158507876046 14.365588971628616 13.66638764165377 0 0 0
650 2 14.27557097561242 7.845594543520399 10.729893142612843 0 0 0
669 1 12.721917610233488 9.366249063899819 9.092488627844578 0 0 0
670 1 14.168726536979582 10.947258987914273 10.602647656531598 0 0 0
1031 2 15.793449490426463 2.731117740543817 15.34623237463297 0 0 0
889 1 12.579635701571076 12.545543893214916 12.401476337803286 0 0 0
683 2 2.8207598317632594 12.600623060740553 9.227962562056337 0 0 0
682 2 1.1208111602861441 14.365764673745817 10.645886706360944 0 0 0
484 1 4.381798645770879 14.278667249182744 7.581278541569981 0 0 0
681 2 -0.16910419289106926 12.41394473373149 9.09458882114706 0 0 0
685 2 6.013663637037632 12.5397336304968 9.22417497165595 0 0 0
684 2 4.246070824489695 14.346902371019643 10.763974889793715 0 0 0
686 2 7.600206551875532 14.099109400560371 10.841628906335528 0 0 0
687 2 9.285809029658118 12.658900351433081 9.125802043835664 0 0 0
688 2 10.99930420016169 14.209390471853064 10.553919913194683 0 0 0
1087 1 9.419322383761708 12.548259706713248 15.345831423328438 0 0 0
883 1 2.885143097180245 12.597437124374943 12.157329202937063 0 0 0
887 1 9.542777883892523 12.52688462308526 12.06993624867301 0 0 0
689 1 12.567056092828649 12.608600611876922 8.920941049664945 0 0 0
690 1 13.994061577619734 14.217642353949271 10.50041954913429 0 0 0
870 1 14.139985776296378 11.052448419101571 13.791021585939674 0 0 0
641 1 -0.09773861274968818 6.09864424052701 8.829947675361312 0 0 0
823 2 3.0476970412697453 3.016229416370263 12.302796812551055 0 0 0
802 2 1.0468871009316756 1.2384657386303517 13.666111190505758 0 0 0
888 1 11.094158005236597 14.318368850930108 13.658746032201718 0 0 0
867 1 9.441840541871466 9.226932276693619 11.956255574207045 0 0 0
825 1 6.206454761800448 3.1608770421773076 12.526985334031368 0 0 0
804 1 4.5992520947344016 1.399913422540348 13.744897265769373 0 0 0
864 2 4.3438771473015025 10.835554230800867 14.012216379209757 0 0 0
806 2 7.59464553560743 1.3133797876613549 14.154687912429571 0 0 0
827 1 9.231809663914804 3.036899183768671 12.451349220607591 0 0 0
808 1 10.887974355206289 1.3971578217540181 13.698851650209637 0 0 0
882 1 1.0284571569467245 14.158394102236027 13.968261025741823 0 0 0
885 2 6.108893657138063 12.64403405407852 12.511980558583822 0 0 0
884 1 4.197094689181806 14.139166841773571 13.8126264381057 0 0 0
829 1 12.815956690760094 3.142259141898454 12.147629239864699 0 0 0
810 1 13.849564550203425 1.4267676897085844 13.7578951103102 0 0 0
1069 1 12.685352993701763 9.559197457666016 15.340794143064754 0 0 0
843 2 2.9346932864598956 6.14544227188902 12.198065271629199 0 0 0
822 1 1.352263857324272 4.313335838300093 14.047814524830374 0 0 0
842 2 0.9961774352974095 7.937277560416499 13.872357387845447 0 0 0
866 1 8.014637041457972 11.18827429316396 13.825750371567565 0 0 0
845 2 6.2080995560238055 6.3976757560612425 12.338773759812735 0 0 0
824 2 4.514696590347695 4.531781458768576 13.940343398361662 0 0 0
846 2 7.9616439980723275 8.01915218232663 13.907468237123984 0 0 0
826 1 7.538208636701158 4.835861792464201 14.00776541073268 0 0 0
828 1 10.958377496244434 4.24997915924162 13.767056320345432 0 0 0
847 2 9.327415151618043 6.041245472807634 12.416939229622326 0 0 0
848 1 10.775663306293696 7.823971952009645 13.886966615096474 0 0 0
868 2 10.937639474529682 11.129441895146156 13.80290357621584 0 0 0
850 1 14.193503667785915 7.630419293264045 13.871954750811165 0 0 0
849 1 12.400680837129391 6.080542797821804 12.514521450400913 0 0 0
830 1 14.290276355788613 4.587804886810185 13.877967520668793 0 0 0
886 2 7.890937066300914 14.184169463297081 13.868223136655478 0 0 0
603 2 2.7025116355552723 -0.03456067285113587 8.962436623878222 0 0 0
863 1 2.5733825572883076 9.536496427284979 12.457759977793478 0 0 0
862 2 1.023096002886974 10.970374592693332 14.074130951785985 0 0 0
844 1 4.465609856279652 7.8491915427951735 13.697947020128185 0 0 0
865 2 6.326625468548134 9.480118811883807 12.43868243060346 0 0 0
486 2 7.711615735237197 14.284132050878947 7.613611063567767 0 0 0
851 2 15.586567930098502 5.971310435997756 12.275779011193316 0 0 0
903 1 2.6880221243152898 15.65321867510634 12.393923986215485 0 0 0
631 2 15.618233218858581 3.0459696800332563 9.091494806088464 0 0 0
703 1 2.8588821703072003 15.807392292326979 9.22998651728879 0 0 0
661 1 -0.2672065983683902 9.386513075605322 9.067714846546297 0 0 0
621 2 -0.08147058017826533 2.884044197413688 9.113237171108068 0 0 0
1091 1 15.65250012829651 12.619898316018334 15.487205256941273 0 0 0
803 1 2.8576118762309597 -0.16758278843094132 12.395627000354862 0 0 0
691 1 15.673529360243604 12.759108158844848 8.928335454354258 0 0 0
671 1 15.787452004197062 9.504057226245639 9.193023414330849 0 0 0
490 1 14.078525492709739 14.403333310431984 7.647880090097486 0 0 0
1085 2 6.207339470852149 12.335569446799232 15.4070715958689 0 0 0
1003 1 2.934083476414967 -0.06780718078715287 15.081533456719672 0 0 0
466 2 7.657700809317683 10.838608996174454 7.801127645070146 0 0 0
408 1 11.038576192454869 1.2338891925850703 7.5982540520354185 0 0 0
404 1 4.607798056850593 1.3771379090095992 7.494547752198283 0 0 0
446 1 7.553551444528947 7.612377447624943 7.487914402514978 0 0 0
448 1 10.951369440385967 7.7702813896021095 7.613556450039249 0 0 0
1083 2 3.0738405030324976 12.481354607024052 15.341240893774225 0 0 0
1047 2 9.534251870609426 6.13826092373325 15.250516576108028 0 0 0
1027 2 9.445687805446072 2.688691116092781 15.47520467652964 0 0 0
1103 2 2.797905220971229 15.601381935896647 15.397210577812778 0 0 0
1025 2 6.020464694571711 2.98325075807756 15.390765774037432 0 0 0
462 2 1.3842878311825129 10.941521572439658 7.52886268424097 0 0 0
444 1 4.532741664771483 7.748602851911608 7.480415560794528 0 0 0
1223 1 2.854104456774651 2.9965360754987325 18.55270630887252 0 0 0
1002 2 1.6370740849691487 1.1045178908143427 17.141916933002676 0 0 0
1023 1 2.8787623460751424 2.688462758221815 15.556496091491855 0 0 0
1225 2 5.950358740436983 3.029154766793934 18.62499213214352 0 0 0
1004 2 4.625555235855542 1.2509991665371165 17.50570892791769 0 0 0
1006 2 7.815449759675113 1.2888610931279607 17.01127279638145 0 0 0
1227 2 9.127905537189326 3.015083961784967 18.809604794354232 0 0 0
1008 1 10.736542798812089 1.574210402867671 17.48325090159123 0 0 0
1063 1 2.751953063786947 9.224690237924811 15.524998847325218 0 0 0
1229 2 12.65578921653162 3.3170162153635228 18.68623463484203 0 0 0
1010 2 13.86098453050824 1.3182809514467428 17.108910138253904 0 0 0
1489 1 12.57108266392589 12.828508816648421 21.81869815116316 0 0 0
1243 1 2.7765293379113984 6.539999189052179 18.67538282953659 0 0 0
1022 2 1.4592988263687958 4.706261608503332 17.398293385543962 0 0 0
1209 2 12.496356364365825 0.17936248981339276 18.882324514135444 0 0 0
1245 2 6.282989516124275 6.319976172790149 18.72349643957757 0 0 0
1024 2 4.663965042714495 4.454093450955486 17.18078031160619 0 0 0
1505 2 5.932468032324145 15.709788691112452 21.97967993537339 0 0 0
1026 1 7.799247624020268 4.587488897290165 17.253740708473277 0 0 0
1247 2 9.419551111963361 6.415967246178245 18.80323118792116 0 0 0
1028 1 10.82895234903096 4.535204566602419 17.14018953829246 0 0 0
1048 1 10.925795337494476 7.733855559118667 17.003512813715663 0 0 0
1046 1 7.846172506133451 8.06458476368479 17.056282253322834 0 0 0
1249 2 12.567941505281992 6.138053890514106 18.3841334563409 0 0 0
1030 1 14.145397200627256 4.567209399920076 16.93343194765518 0 0 0
1431 2 15.558950041520886 3.174750613234135 21.887210815806213 0 0 0
1251 1 15.691114560459571 6.209451531648144 18.5363575212844 0 0 0
1042 2 1.2473023633750149 7.891129315278338 17.26789214385227 0 0 0
1263 2 2.693493017166458 9.5542393745002 18.9490070552101 0 0 0
1062 2 1.2282837471095773 10.9543821465124 17.30284907712014 0 0 0
1503 2 2.6892528868896304 15.74894639616874 22.073142127291934 0 0 0
1044 1 4.4702229309231285 8.132377950359125 17.228761625379896 0 0 0
1265 2 6.222178321867728 9.57130694934246 18.697982966548967 0 0 0
1064 2 4.139079791212228 11.039176743627268 17.030274486298165 0 0 0
1481 2 -0.18716352055664487 12.46899287050311 21.789738944487816 0 0 0
1066 2 7.777202676828031 11.307363910023897 17.177579615955167 0 0 0
1267 2 9.21747150027898 9.615096372625242 18.60953926837182 0 0 0
1068 2 11.034171463224014 11.126959068883448 17.200582628555598 0 0 0
1281 1 0.040137152566255496 12.521469728581055 18.650157173608452 0 0 0
1407 2 9.34422209830766 -0.14487510309702856 21.887557266555035 0 0 0
1050 2 14.279269629333195 7.705190428626618 17.068286960142895 0 0 0
1269 1 12.560630460748781 9.083683231123926 18.429900423905348 0 0 0
1070 1 14.153284092974891 11.140432700294191 17.00086110784192 0 0 0
1283 1 2.9040344056357843 12.48559974290188 18.76890873973702 0 0 0
1082 2 1.3773537726380596 14.236486460681133 17.14359357827493 0 0 0
1291 2 15.562487867773438 12.688344981811783 18.592174669037316 0 0 0
1045 2 6.105040040711338 6.407478315467127 15.567920874670701 0 0 0
1285 1 6.13733485700107 12.692990735357075 18.7401913998004 0 0 0
1084 2 4.493438211176498 14.258232747779156 17.052201792621254 0 0 0
1011 2 15.596123783539475 -0.06126741792492396 15.567185640611836 0 0 0
1086 2 7.822023648145194 14.475074319326527 16.815777541095468 0 0 0
1088 1 10.986372744139379 14.498970592632887 16.95913992861068 0 0 0
1287 2 9.44338415465864 12.834750432558865 18.5392268428025 0 0 0
1501 2 -0.2723765577750825 15.77007388957736 21.9873838268416 0 0 0
1090 1 14.215696661492398 14.199447992457323 16.891555742000563 0 0 0
1289 2 12.573220815905692 13.000696879057822 18.571861002819894 0 0 0
1486 2 7.791489137042603 14.17796409891841 23.473163893096878 0 0 0
1221 2 -0.24359524759601214 2.9536993877852935 18.65901401935958 0 0 0
1423 2 2.863247876332261 3.0024874842360516 22.09471267770904 0 0 0
1202 2 1.3244174933880055 1.4993248848561735 20.19627474011615 0 0 0
1286 2 7.490636279902488 14.232298659327215 20.336047267396477 0 0 0
1043 2 3.017239802200273 6.276743272840555 15.538789752629352 0 0 0
1405 1 6.131764200668696 -0.20260703036972333 21.912289060545074 0 0 0
1425 1 6.028487310932937 3.2036464505594306 21.93902350433468 0 0 0
1204 2 4.673263382961646 1.6527537616912336 20.209044986231426 0 0 0
1206 2 7.558875881169117 1.5569559771578136 20.308694625314114 0 0 0
1427 1 9.520045377872357 3.066406685224143 22.033854894580212 0 0 0
1208 2 10.890780972530573 1.4890376228526354 20.432261498562273 0 0 0
1231 2 15.579174003319324 2.7988712248509433 18.80165039485544 0 0 0
1429 1 12.692073914025553 2.973313076039988 21.875849549430363 0 0 0
1210 2 14.155705426954809 1.4074089685930333 20.292976945224268 0 0 0
1021 1 -0.2540020220038037 2.974247430317314 15.96108839312215 0 0 0
1284 2 4.375013176158401 14.070502464915513 20.254624385309892 0 0 0
1443 2 3.036065528284073 6.21702968602123 22.236293559510738 0 0 0
1222 2 1.392431704295163 4.767045959420357 20.316381012081155 0 0 0
1451 1 15.591620334754218 5.968901382722635 22.329897212231824 0 0 0
1445 2 6.089161880254869 6.197577711225482 21.800590659884122 0 0 0
1224 2 4.484393211468406 4.819977489720321 20.218727466755823 0 0 0
1226 2 7.751432780270674 4.643377078964983 20.238300626341662 0 0 0
1424 1 4.625751291106155 4.685345110763915 23.50655172992752 0 0 0
1447 1 9.315634990050906 6.202697798476657 21.863668352368204 0 0 0
1228 1 10.724951604364625 4.836228458890473 20.346403892647434 0 0 0
1067 1 9.345904297615656 9.85315628802376 15.591740955919054 0 0 0
1449 2 12.4432629823178 6.134953060153216 22.00292954526808 0 0 0
1230 2 14.222233059904294 4.550707328864765 20.410338591314144 0 0 0
1242 1 1.2020558157417247 7.831909035813997 20.33999741634687 0 0 0
1262 2 1.2551808623942966 10.914468012350829 20.50051607807058 0 0 0
1463 2 2.70690082478853 9.364899813914205 22.12467800848073 0 0 0
1485 2 6.13141388661498 12.480576264600348 22.151234848406656 0 0 0
1406 2 7.829625555750958 1.3727177169250617 23.35506177739053 0 0 0
1244 2 4.575373589136619 7.807600288380236 20.619457876403718 0 0 0
1264 1 4.53741634303147 10.820105598776115 20.454633746932778 0 0 0
1465 1 6.087697446621698 9.753854388795522 21.9533384455146 0 0 0
1288 1 10.738516285196964 14.401886807993428 20.207943227048137 0 0 0
1428 2 10.759757103604827 4.788682153175996 23.511158569510727 0 0 0
1246 2 7.794606318215944 7.805794984795291 20.394462542224833 0 0 0
1266 2 7.9381718378804305 11.045900611252707 20.336448474343573 0 0 0
1467 1 9.624896761925216 9.598170897078603 21.85193182932878 0 0 0
1268 2 11.186197821801912 10.920342176161862 20.224743541677288 0 0 0
1248 2 11.043006372406875 7.913163143310408 20.285552836082985 0 0 0
1487 1 9.296601044364953 12.549549593646848 21.893504641374196 0 0 0
1250 1 14.359615391891376 7.779235872416701 20.50745374046476 0 0 0
1469 2 12.565051628188119 9.48971285615773 21.85814856850663 0 0 0
1270 2 14.1056410195105 11.13742496286087 20.163978451611854 0 0 0
1290 1 14.31726200259172 14.256403175614432 20.55447526964345 0 0 0
1282 2 1.5133127365863999 14.17357605002498 20.17112282538556 0 0 0
1483 2 2.913979688075175 12.51235023343244 21.82719506978414 0 0 0
1470 2 14.150748559498835 11.115424232829788 23.23445079069614 0 0 0
1409 1 12.612538826056962 -0.04948615581278745 21.966633329904095 0 0 0
1446 2 7.687112262563504 7.875669535173522 23.40134202164589 0 0 0
1468 2 11.101667266437536 11.16634298986888 23.481404698283118 0 0 0
1410 1 14.287831941043645 1.3620286794859067 23.37779536804389 0 0 0
1450 2 14.090988128867485 7.8404460414360795 23.369214890798347 0 0 0
1488 1 11.14223865591721 14.189824927619151 23.406754793837695 0 0 0
1462 1 1.272889474213233 10.92357768415357 23.465564556775014 0 0 0
1408 2 10.996101548100363 1.360470088138782 23.50868167388295 0 0 0
1029 2 12.552060887037419 2.8089347181453124 15.528001557689763 0 0 0
1065 2 6.012968476036723 9.30795765526524 15.57307117417496 0 0 0
1049 2 12.562230689512111 6.008689963492861 15.613789212840047 0 0 0
1623 1 2.7609014787103043 3.0755063803632505 25.1077538001897 0 0 0
1602 1 1.4479245496524331 1.4947536599597167 26.836820406191453 0 0 0
1422 2 1.3516826092652279 4.678710333333337 23.581669356233583 0 0 0
1809 1 12.474472368133961 -0.14518873217251382 28.439293740154508 0 0 0
1625 2 5.998558764284493 3.189826748722689 25.15305319359152 0 0 0
1604 1 4.63083349648682 1.4684681051915005 27.038249585530956 0 0 0
1601 1 -0.19933691131442513 -0.19181641009087513 25.47787490469899 0 0 0
1705 1 6.125423181888573 15.778121343835506 25.002057958191536 0 0 0
1606 1 7.8097022550718975 1.4492502262341713 26.72460514997992 0 0 0
1627 2 9.436633800015601 3.0262526562516308 25.309547565122557 0 0 0
1608 1 10.968417173174 1.3199308611331773 26.78263321769562 0 0 0
1603 1 3.009016216176001 0.11198882351266826 25.235650133823107 0 0 0
1805 1 6.521868050980673 -0.12837509494722582 28.34489173242304 0 0 0
1629 2 12.637810923342643 2.871896714807351 25.154327092104133 0 0 0
1610 2 14.264231763285297 1.3028262317063226 26.800607562330427 0 0 0
1402 2 1.1863434812318987 1.57933978554702 23.594233754643458 0 0 0
2091 1 15.78336822283939 12.738635064900288 31.489026903732203 0 0 0
1803 2 2.8447594493971375 -0.06797415276204466 28.39059196690155 0 0 0
1643 2 2.8477403192360597 6.364654738353269 25.370316155564595 0 0 0
1622 2 1.2818324846065314 4.6862008354703395 26.842320739651395 0 0 0
1642 2 1.2724938043666172 7.765001960985968 26.747328643009556 0 0 0
1466 1 8.005706138388748 11.07225864096122 23.635433023695743 0 0 0
1645 1 6.189357263560062 6.153129721905593 25.112971465190423 0 0 0
1624 1 4.316087244513181 4.8633338512615225 26.94130311583233 0 0 0
1626 1 7.6487744974673 4.673453632980152 26.730411387932538 0 0 0
1646 2 7.836503925817015 8.007019352604805 26.909428208432853 0 0 0
1647 1 9.224757094991443 6.338830254710753 25.35932898613467 0 0 0
1628 2 10.890341352356135 4.697471276164122 26.806602041208507 0 0 0
1649 2 12.271382491010845 6.2109099229416165 25.388221893339267 0 0 0
1630 2 14.203736358480004 4.858014040258694 26.80903015185341 0 0 0
1650 2 14.309265573593633 7.823662346765007 26.48621273052134 0 0 0
1651 1 15.817985951472705 6.239156537513519 25.143775721812656 0 0 0
2081 2 -0.1705635956589661 12.326367643122637 31.491710427966716 0 0 0
1663 1 2.692546393649858 9.124797066769512 25.55831283779982 0 0 0
1662 1 1.277665141054303 11.087923539605075 26.615123654395905 0 0 0
1867 2 9.28018379173775 9.654710744458963 28.51037752313861 0 0 0
1644 2 4.590296310255271 7.7117313692454506 26.818342664125076 0 0 0
1665 2 6.051888382612902 9.370295369059015 25.19194997741069 0 0 0
1664 1 4.581839265234887 10.826090463641576 26.912161629477275 0 0 0
1666 2 7.676829768918008 11.010126064145096 26.734697387527767 0 0 0
1671 1 15.70321145114583 9.39877693305212 24.884978364297076 0 0 0
1648 2 10.940085487625687 8.033078566648712 26.794073569559785 0 0 0
1667 2 9.393321132899139 9.547899086875093 25.278094550206017 0 0 0
1668 2 11.137204160712662 11.196245411964298 26.82075386766214 0 0 0
1669 1 12.429020290803203 9.638871015595274 25.15943604277837 0 0 0
1670 1 14.366538778683518 11.301585550488793 26.669843025395494 0 0 0
1885 2 6.186182710197722 12.547589364543107 28.3364539593324 0 0 0
1631 2 15.658632066167288 3.116145599494169 25.114153846972 0 0 0
1683 1 2.911683559135581 12.740140584090335 25.265904885835564 0 0 0
1682 1 1.5488803083071845 14.12068529254884 26.914620518269572 0 0 0
1889 1 12.772057806220447 12.671261167292851 28.375050093182494 0 0 0
1866 2 7.634015195898689 10.978220716504694 29.861047652164178 0 0 0
1685 1 6.070333786970253 12.480747948574642 25.179511961064993 0 0 0
1684 2 4.59260882652259 14.460636225219679 26.621891973145733 0 0 0
1851 1 15.771086966273115 6.328775312278036 28.34871835655184 0 0 0
1886 1 8.043093676806905 14.219456676503565 29.861164987423752 0 0 0
1686 1 7.720302969011225 14.208530158369705 26.745284491868958 0 0 0
1688 2 11.13824638442467 14.427336997885806 26.64835406323254 0 0 0
1687 2 9.507903406013696 12.695855853035688 25.192669644029106 0 0 0
1882 2 1.4398652450975729 14.18674326979393 29.974737804880338 0 0 0
1690 1 14.21189039985857 14.297990654698173 26.623888565938643 0 0 0
1689 1 12.615911456537068 12.459440258855325 25.071685573550116 0 0 0
1846 1 7.961435372722557 7.893439957153769 29.928281542048204 0 0 0