

# Styles
	units        metal
	atom_style   atomic
	pair_style   eam/fs

# Neighbour list
	neighbor        2.0 bin
	neigh_modify    check yes


# Boundary conditions
	boundary p p p


# ----------------- Atom Definition Section -----------------

read_data "solid.data"
Reading data file ...
  orthogonal box = (-0.016319894 -0.026116788 -0.077393605) to (31.66632 31.676117 79.202394)
  2 by 2 by 10 MPI processor grid
  reading atom labelmap ...
  reading atoms ...
  5000 atoms
  reading velocities ...
  5000 velocities
  read_data CPU = 0.040 seconds

read_data "liquid.data" add append shift 37 0 0
Reading data file ...
WARNING: Non-zero image flags with growing box leads to bad coordinates (src/read_data.cpp:589)
  orthogonal box = (-0.016319894 -0.026116788 -0.077393605) to (68.66632 31.676117 79.202394)
  4 by 2 by 5 MPI processor grid
  reading atom labelmap ...
  reading atoms ...
  5000 atoms
  reading velocities ...
  5000 velocities
  read_data CPU = 0.027 seconds

# ----------------- Settings Section -----------------

include "coexistence.in.settings"
# ----- SETTINGS -----
# Forcefield
	pair_coeff * * W-Mo.eam.fs W Mo

# Collection of atoms
	group alloy type  1 2
10000 atoms in group alloy


# ----------------- Run Section -----------------

include "coexistence.in.run"
# Thermo output
	compute msd all msd

	thermo          1000
	thermo_style    custom step temp press pe ke etotal vol density enthalpy c_msd[1] c_msd[2] c_msd[3]
	thermo_modify   flush yes

# Dump configuration
	dump            d1 all custom 25000 coexistence_W-Mo.dump id type element x y z xu yu zu vx vy vz
	dump_modify     d1 element W Mo


# ----- EQUILIBRATION AT Ti -----
	minimize 1e-25 1e-25 5000 10000
Neighbor list info ...
  update: every = 1 steps, delay = 0 steps, check = yes
  max neighbors/atom: 2000, page size: 100000
  master list distance cutoff = 7.3
  ghost atom cutoff = 7.3
  binsize = 3.65, bins = 19 9 22
  1 neighbor lists, perpetual/occasional/extra = 1 0 0
  (1) pair eam/fs, perpetual
      attributes: half, newton on
      pair build: half/bin/atomonly/newton
      stencil: half/bin/3d
      bin: standard
Per MPI rank memory allocation (min/avg/max) = 4.855 | 4.862 | 4.87 Mbytes
   Step          Temp          Press          PotEng         KinEng         TotEng         Volume        Density        Enthalpy       c_msd[1]       c_msd[2]       c_msd[3]   
         0   3147.3145      737794.18     -12116.362      4067.8164     -8048.5456      172623.26      13.463879      71443.593      0              0              0            
      1000   3147.3145      10128.626     -76235.047      4067.8164     -72167.23       172623.26      13.463879     -71075.942      0.54472029     0.202136       0.20734378   
      2000   3147.3145     -180.17847     -76281.213      4067.8164     -72213.397      172623.26      13.463879     -72232.81       0.70364905     0.21621516     0.21542002   
      2307   3147.3145     -272.33714     -76281.705      4067.8164     -72213.888      172623.26      13.463879     -72243.231      0.70611361     0.21605454     0.21504173   
Loop time of 3.83093 on 40 procs for 2307 steps with 10000 atoms

95.5% CPU use with 40 MPI tasks x 1 OpenMP threads

Minimization stats:
  Stopping criterion = energy tolerance
  Energy initial, next-to-last, final = 
       -12116.36204945   -76281.704776988   -76281.704776988
  Force two-norm initial, final = 224306.09 4.4897918e-05
  Force max component initial, final = 94125.607 1.3486957e-05
  Final line search alpha, max atom move = 1 1.3486957e-05
  Iterations, force evaluations = 2307 4350

MPI task timing breakdown:
Section |  min time  |  avg time  |  max time  |%varavg| %total
---------------------------------------------------------------
Pair    | 2.5387     | 2.7259     | 3.0207     |   8.8 | 71.15
Neigh   | 0.021834   | 0.024567   | 0.028224   |   1.3 |  0.64
Comm    | 0.55979    | 0.7962     | 0.9809     |  13.3 | 20.78
Output  | 0.0001753  | 0.00020716 | 0.0013484  |   0.0 |  0.01
Modify  | 0          | 0          | 0          |   0.0 |  0.00
Other   |            | 0.2841     |            |       |  7.42

Nlocal:            250 ave         278 max         230 min
Histogram: 4 8 5 5 8 0 0 1 4 5
Nghost:        1459.78 ave        1553 max        1344 min
Histogram: 6 4 0 6 4 0 0 2 12 6
Neighs:        12457.9 ave       15369 max       10337 min
Histogram: 8 2 2 15 3 0 0 0 4 6

Total # of neighbors = 498316
Ave neighs/atom = 49.8316
Neighbor list builds = 48
Dangerous builds = 0

	fix             feq all npt temp ${Ti} ${Ti} ${tdamp} aniso ${press} ${press} ${pdamp}
	fix             feq all npt temp 5500 ${Ti} ${tdamp} aniso ${press} ${press} ${pdamp}
	fix             feq all npt temp 5500 5500 ${tdamp} aniso ${press} ${press} ${pdamp}
	fix             feq all npt temp 5500 5500 0.1 aniso ${press} ${press} ${pdamp}
	fix             feq all npt temp 5500 5500 0.1 aniso 1 ${press} ${pdamp}
	fix             feq all npt temp 5500 5500 0.1 aniso 1 1 ${pdamp}
	fix             feq all npt temp 5500 5500 0.1 aniso 1 1 1
	run             1000000    # 1 ns
Per MPI rank memory allocation (min/avg/max) = 5.007 | 5.013 | 5.021 Mbytes
   Step          Temp          Press          PotEng         KinEng         TotEng         Volume        Density        Enthalpy       c_msd[1]       c_msd[2]       c_msd[3]   
      2307   3147.3145     -272.33714     -76281.705      4067.8164     -72213.888      172623.26      13.463879     -72243.231      0.70611361     0.21605454     0.21504173   
      3000   3148.6939     -799.38065     -71362.185      4069.5994     -67292.586      178793.09      12.999265     -67381.792      2.9695242      0.52912012     0.52418265   
      4000   5520.4328      12033.799     -65658.991      7135.0058     -58523.985      199989.43      11.621508     -57021.883      31.7401        3.5903328      3.9782938    
      5000   5537.8018     -443.1903      -64892.309      7157.4549     -57734.855      208500.45      11.147116     -57792.529      74.234939      7.0151732      7.8756056    
      6000   5522.6819      38.424713     -64883.576      7137.9128     -57745.663      207499.87      11.200869     -57740.687      93.288518      9.9096641      10.51378     
      7000   5499.5568     -1874.7998     -64886.434      7108.0242     -57778.409      205136.04      11.329939     -58018.451      91.023336      13.740892      12.811033    
      8000   5484.3597     -68.560612     -64935.701      7088.3824     -57847.318      203169.13      11.439625     -57856.012      82.459139      16.894729      15.775196    
      9000   5444.8289      1007.9168     -64768.908      7037.2899     -57731.618      200756.17      11.577123     -57605.324      71.020499      20.002586      18.474415    
     10000   5482.0879      2868.3111     -64855.102      7085.4461     -57769.656      198835.76      11.688937     -57413.689      57.644326      23.162178      21.255604    
     11000   5571.7362     -231.60958     -64535.617      7201.3141     -57334.302      199221.71      11.666292     -57363.102      56.180134      25.922004      23.955714    
     12000   5529.2841     -4777.3791     -64568.338      7146.4459     -57421.893      197751.8       11.75301      -58011.55       56.366762      27.908872      26.235649    
     13000   5475.8634     -4258.8639     -64331.058      7077.4012     -57253.657      198480.79      11.709842     -57781.253      49.297942      30.559679      30.158162    
     14000   5464.747      -1776.7737     -64051.998      7063.0335     -56988.964      198558.02      11.705287     -57209.16       52.475368      31.777392      33.522824    
     15000   5451.1697      822.19184     -64060.706      7045.4853     -57015.221      198210         11.72584      -56913.505      54.708902      34.486016      34.750772    
     16000   5402.1689      1820.704      -63930.211      6982.153      -56948.058      197610.65      11.761404     -56723.494      51.416571      37.347776      37.172216    
     17000   5557.115       2503.2833     -64014.949      7182.4166     -56832.532      197186.11      11.786727     -56524.443      48.080372      40.960382      39.3561      
     18000   5493.6263      2170.4054     -63759.784      7100.3592     -56659.425      197672.86      11.757703     -56391.646      48.007283      44.947329      41.708638    
     19000   5635.9644     -2444.3146     -63927.281      7284.3273     -56642.954      197694.93      11.75639      -56944.561      48.387384      49.558346      43.056011    
     20000   5467.6934     -340.08273     -63729.728      7066.8416     -56662.886      198087.04      11.733118     -56704.932      46.603196      55.188989      44.210077    
     21000   5502.6369     -3903.3353     -63742.846      7112.0052     -56630.841      198589.78      11.703416     -57114.659      50.229474      57.675584      46.091694    
     22000   5484.0206      1559.4973     -63853.382      7087.9441     -56765.438      196643.82      11.819231     -56574.032      52.30832       55.868188      49.433749    
     23000   5497.0583     -1016.3131     -63864.586      7104.795      -56759.791      196917.82      11.802786     -56884.702      51.397352      57.06633       53.753529    
     24000   5487.3877      1309.9386     -63833.922      7092.296      -56741.626      196909.8       11.803266     -56580.633      51.104177      60.133979      55.953938    
     25000   5469.4734      758.2603      -63813.078      7069.1422     -56743.936      197064.86      11.793979     -56650.671      59.514338      61.860109      56.25998     
     26000   5482.0234      4102.3667     -63875.218      7085.3628     -56789.855      195924.43      11.862628     -56288.192      60.344005      64.089185      58.430584    
     27000   5397.2539     -3225.992      -63848.59       6975.8005     -56872.789      197249.57      11.782935     -57269.953      61.688379      66.658031      62.415969    
     28000   5479.1699      3452.6735     -63826.774      7081.6747     -56745.099      196296.44      11.840147     -56322.083      67.657366      66.533394      63.857462    
     29000   5444.106       4630.1808     -63885.345      7036.3556     -56848.989      196036.15      11.855868     -56282.458      68.215628      68.482738      66.439758    
     30000   5540.3359     -949.62254     -63665.386      7160.7301     -56504.656      197899.61      11.744231     -56621.953      75.418015      70.444889      69.753201    
     31000   5551.364      -158.45248     -63614.947      7174.9835     -56439.963      197900.51      11.744177     -56459.535      76.479052      72.375327      73.405787    
     32000   5494.1223      2155.2531     -63807.382      7101.0003     -56706.382      196415.14      11.832992     -56442.164      74.741626      74.641942      75.531249    
     33000   5468.9046      915.57518     -63813.299      7068.4071     -56744.892      196490.82      11.828434     -56632.606      72.237858      80.24088       77.924907    
     34000   5537.743       2071.0243     -63919.214      7157.3789     -56761.835      196301.72      11.839829     -56508.089      77.507205      81.710971      79.946658    
     35000   5419.9193     -2294.9515     -63894.897      7005.095      -56889.802      196732.91      11.813879     -57171.602      80.633836      84.538726      81.52491     
     36000   5500.75       -540.34687     -63756.975      7109.5664     -56647.408      196771.46      11.811564     -56713.771      83.462705      85.991059      84.283001    
     37000   5577.0058      1996.1092     -63771.229      7208.125      -56563.104      196585.7       11.822725     -56318.183      91.75593       87.462509      84.906872    
     38000   5471.0515      1273.0443     -63853.976      7071.1819     -56782.795      196428.56      11.832183     -56626.718      96.471921      89.522895      86.166061    
     39000   5465.8887     -3291.9174     -63826.279      7064.5092     -56761.77       196811.46      11.809164     -57166.149      101.70138      93.871154      86.497503    
     40000   5454.0925     -168.734       -63893.376      7049.2629     -56844.113      196305.79      11.839583     -56864.787      102.08948      99.112449      86.839144    
     41000   5518.1317      420.49301     -63851.337      7132.0317     -56719.305      196496.8       11.828074     -56667.734      105.50695      103.4379       87.647474    
     42000   5442.445       2225.2763     -63872.566      7034.2088     -56838.358      196224.64      11.844479     -56565.82       107.63046      108.64826      88.311021    
     43000   5556.4801      766.28013     -63931.903      7181.596      -56750.307      196173.86      11.847545     -56656.482      108.50791      109.25682      91.103949    
     44000   5437.4599      2994.4206     -64025.642      7027.7657     -56997.876      195188.31      11.907366     -56633.075      113.10867      107.40309      93.899285    
     45000   5546.8519     -6178.942      -63842.498      7169.1518     -56673.346      197202.85      11.785726     -57433.877      114.34606      110.46991      97.396926    
     46000   5546.8165      2035.816      -63696.771      7169.1061     -56527.665      196993.29      11.798263     -56277.354      119.36346      112.37386      98.843834    
     47000   5498.8408      4146.8782     -63828.4        7107.0988     -56721.301      196144.97      11.849291     -56213.623      120.54894      110.2061       102.82206    
     48000   5509.8124      2653.5822     -63849.751      7121.2793     -56728.472      196615.07      11.820959     -56402.831      126.41278      109.36997      105.95283    
     49000   5602.3232      1307.4128     -63851.672      7240.8469     -56610.825      196520.93      11.826622     -56450.46       122.56148      111.37451      109.44781    
     50000   5465.2544     -550.20898     -63917.206      7063.6894     -56853.516      196117.94      11.850924     -56920.866      123.90829      114.82444      111.27027    
     51000   5491.9936      1862.4918     -63799.409      7098.249      -56701.16       196585.45      11.82274      -56472.634      119.87542      117.29089      116.55633    
     52000   5520.2374     -45.240805     -63691.309      7134.7534     -56556.556      197157.03      11.788465     -56562.123      122.26087      116.68697      122.85942    
     53000   5523.1823      2566.5601     -63911.326      7138.5595     -56772.766      195930.32      11.862272     -56458.901      116.0616       117.33463      131.4573     
     54000   5474.8153     -1375.6636     -63722.937      7076.0466     -56646.89       196886.2       11.804681     -56815.941      118.32474      121.40329      133.19694    
     55000   5497.8349      1368.0495     -63822.624      7105.7987     -56716.826      196673.18      11.817467     -56548.892      125.34428      120.33878      136.68263    
     56000   5514.7649      1585.2358     -63888.538      7127.6802     -56760.858      196253.57      11.842733     -56566.68       124.14591      120.95556      142.38405    
     57000   5519.0967      846.85145     -63709.71       7133.279      -56576.431      197103.22      11.791683     -56472.25       128.42862      122.97092      146.1478     
     58000   5467.0004     -968.80714     -63823.193      7065.9459     -56757.247      196858.97      11.806314     -56876.284      139.39096      124.05684      143.97001    
     59000   5511.1057     -255.2153      -63899.993      7122.9509     -56777.043      196533.03      11.825894     -56808.349      139.89647      128.33034      142.68839    
     60000   5501.8091      648.71659     -63867.791      7110.9353     -56756.856      196218.64      11.844842     -56677.408      136.75935      133.03653      145.1737     
     61000   5498.3217     -230.05255     -63816.208      7106.4279     -56709.78       196495.89      11.828129     -56737.994      137.1571       135.74776      148.69148    
     62000   5514.9793      1189.271      -63886.274      7127.9573     -56758.317      196531.77      11.82597      -56612.434      137.6153       138.44151      152.44505    
     63000   5591.403      -425.15854     -63896.334      7226.7328     -56669.602      196463.84      11.830059     -56721.736      141.80861      137.06821      158.82947    
     64000   5564.375       3546.4353     -63827.586      7191.8        -56635.786      196263.8       11.842116     -56201.354      146.73463      139.05934      159.27095    
     65000   5471.2678     -540.68009     -63800.356      7071.4614     -56728.894      196981.05      11.798996     -56795.368      154.97365      141.57876      158.61134    
     66000   5442.4848     -1791.6818     -63952.945      7034.2602     -56918.685      196435.38      11.831773     -57138.355      150.21572      144.58597      162.76208    
     67000   5469.314       3625.4644     -63907.99       7068.9362     -56839.053      195784.9       11.871083     -56396.024      145.73475      146.4056       167.71031    
     68000   5484.1697      349.69411     -63775.923      7088.1369     -56687.786      197010.34      11.797242     -56644.786      147.57421      150.18527      171.63117    
     69000   5468.6271      2567.307      -63627.006      7068.0485     -56558.958      196736.34      11.813673     -56243.71       153.41181      151.03654      172.28699    
     70000   5473.1841     -1359.7777     -63943.263      7073.9382     -56869.325      196646.63      11.819062     -57036.22       152.6992       153.33947      177.65869    
     71000   5487.6227      2408.1137     -63865.73       7092.5997     -56773.131      196498.37      11.82798      -56477.788      153.05317      152.1054       187.17975    
     72000   5462.3615     -653.18099     -63897.884      7059.9503     -56837.934      196543.01      11.825293     -56918.062      150.95326      157.08928      191.10544    
     73000   5434.7029      177.99017     -63727.384      7024.2023     -56703.181      196632.71      11.819899     -56681.337      154.75475      161.90638      189.9435     
     74000   5529.4242      354.04502     -63978.118      7146.627      -56831.491      196487.34      11.828644     -56788.072      157.89258      164.42474      190.78248    
     75000   5457.0577     -1564.8715     -64104.331      7053.0954     -57051.236      195988.28      11.858764     -57242.661      166.53387      162.60006      189.70276    
     76000   5502.9324      1914.6552     -63864.317      7112.3871     -56751.93       196066.8       11.854015     -56517.624      174.40442      161.28422      192.94455    
     77000   5531.2326     -445.70053     -63799.499      7148.9643     -56650.534      197028.89      11.796132     -56705.345      180.4425       166.48685      190.68125    
     78000   5537.0173     -1768.3187     -63782.769      7156.4409     -56626.328      197307.11      11.779498     -56844.096      179.02445      170.93619      191.43748    
     79000   5454.3099     -103.59801     -63894.964      7049.5439     -56845.42       196386.64      11.834709     -56858.119      184.97883      174.45323      188.20717    
     80000   5563.9905     -3767.7408     -63892.487      7191.303      -56701.184      197006         11.797502     -57164.471      188.80811      176.10337      190.5662     
     81000   5536.2277      5428.5665     -63755.439      7155.4203     -56600.019      196257.16      11.842517     -55935.052      189.50437      174.86706      195.12472    
     82000   5519.0155      3090.7722     -63795.514      7133.174      -56662.34       196567.23      11.823836     -56283.141      189.11753      177.07014      199.32776    
     83000   5517.7821     -499.62065     -63794.191      7131.5799     -56662.611      196785.29      11.810734     -56723.976      195.83985      176.6896       203.48983    
     84000   5438.7295     -120.15642     -63879.578      7029.4067     -56850.171      196238.93      11.843617     -56864.888      203.95257      176.93244      202.30701    
     85000   5451.6814     -135.22426     -63916.038      7046.1466     -56869.892      196513.92      11.827044     -56886.478      208.80373      179.7668       203.19706    
     86000   5555.1012     -2432.227      -63768.878      7179.8138     -56589.064      197650.14      11.759055     -56889.112      211.46813      179.52534      211.84483    
     87000   5478.7201     -197.6236      -63893.127      7081.0934     -56812.034      196506.34      11.8275       -56836.272      201.16747      182.50984      217.75305    
     88000   5465.3277     -2410.1814     -63823.917      7063.784      -56760.133      196968.4       11.799754     -57056.436      195.76138      186.93328      225.67148    
     89000   5397.3011      3397.9077     -63928.873      6975.8615     -56953.012      195869.31      11.865967     -56537.61       198.84929      188.34442      226.29532    
     90000   5532.0899     -1524.3224     -63944.144      7150.0723     -56794.072      196364.31      11.836055     -56980.894      204.54399      191.19994      227.32475    
     91000   5409.792      -2572.9751     -63721.727      6992.0057     -56729.721      197468.96      11.769844     -57046.842      212.73891      193.13565      229.94744    
     92000   5552.0563     -60.112365     -63672.9        7175.8784     -56497.022      196881.73      11.804949     -56504.409      219.22518      196.23861      226.80592    
     93000   5536.9153     -3251.3342     -63908.583      7156.3091     -56752.274      196798.23      11.809958     -57151.641      228.92826      195.87501      228.11906    
     94000   5501.6835      976.39201     -63854.207      7110.7729     -56743.435      196526.58      11.826282     -56623.668      227.42902      195.72177      235.15536    
     95000   5484.9806     -1886.3812     -63978.372      7089.1849     -56889.187      196357.47      11.836467     -57120.376      231.48455      192.51826      244.84874    
     96000   5511.294       1875.2778     -63787.993      7123.1942     -56664.799      196642.43      11.819315     -56434.638      236.28246      197.94305      241.74302    
     97000   5519.686       98.383376     -63771.402      7134.0406     -56637.361      196721.82      11.814545     -56625.281      242.577        201.17705      238.2993     
     98000   5533.9822      120.18373     -63793.873      7152.5181     -56641.355      197342.42      11.777391     -56626.552      246.17823      202.45885      241.90557    
     99000   5468.9264      352.10666     -63881.579      7068.4352     -56813.144      196415.86      11.832949     -56769.978      244.44034      209.72879      236.09295    
    100000   5501.3656      3395.6998     -63894.883      7110.362      -56784.521      196001.3       11.857976     -56369.11       248.44997      212.12832      236.78225    
    101000   5494.749      -148.95187     -64007.129      7101.8103     -56905.318      196368.99      11.835773     -56923.574      249.87939      211.49906      243.35045    
    102000   5467.296      -628.9757      -63857.955      7066.3281     -56791.627      196716.87      11.814842     -56868.853      249.34971      213.30058      249.46716    
    103000   5473.3377      1070.4155     -63963.864      7074.1367     -56889.728      196256.92      11.842531     -56758.608      242.09437      221.26217      247.64123    
    104000   5460.141      -2336.7944     -63703.145      7057.0804     -56646.065      196917.13      11.802826     -56933.271      244.25785      227.19403      246.76596    
    105000   5545.2644     -1084.1335     -63864.916      7167.1        -56697.816      196790.61      11.810415     -56830.977      241.56196      231.99824      248.20779    
    106000   5536.5173      491.68077     -63997.786      7155.7946     -56841.992      195881.16      11.865249     -56781.879      232.30407      235.94296      255.51285    
    107000   5450.0376      4040.6801     -63913.395      7044.022      -56869.373      195951.21      11.861007     -56375.185      235.55655      234.07292      262.73332    
    108000   5473.0376     -4743.3328     -63926.539      7073.7489     -56852.79       196791.44      11.810365     -57435.402      234.39748      236.16835      271.17476    
    109000   5569.5103      2757.5791     -63851.748      7198.4371     -56653.311      196666.95      11.817841     -56314.818      239.32167      237.05317      272.18514    
    110000   5544.5593     -19.882536     -63762.264      7166.1887     -56596.076      196821.56      11.808558     -56598.518      234.12423      243.23189      278.68522    
    111000   5469.3091     -111.4918      -63680.752      7068.9299     -56611.823      196707.9       11.815381     -56625.511      240.32499      246.73014      272.80123    
    112000   5476.1301      1200.0457     -63751.99       7077.7459     -56674.244      196787.09      11.810626     -56526.849      240.64087      252.24813      273.65736    
    113000   5534.6119     -2.7605485     -63850.623      7153.3319     -56697.291      196498.29      11.827985     -56697.63       248.14877      253.17156      272.57826    
    114000   5446.5395     -1244.9439     -63902.37       7039.5008     -56862.869      196247.51      11.843099     -57015.36       254.65563      256.81912      269.04466    
    115000   5449.0464     -4011.3971     -63761.001      7042.7409     -56718.26       197150.04      11.788883     -57211.868      263.0495       260.39102      268.10261    
    116000   5524.4552     -2218.068      -63852.322      7140.2048     -56712.117      197144.02      11.789243     -56985.045      265.19553      259.34671      273.72798    
    117000   5526.4988      1651.69       -63828.081      7142.846      -56685.235      196492.53      11.828331     -56482.67       259.55997      263.49669      279.68792    
    118000   5590.4463      2195.2254     -63878.796      7225.4964     -56653.3        196280.98      11.84108      -56384.365      255.40593      268.19703      286.13478    
    119000   5546.1217      1457.2826     -63718.955      7168.208      -56550.747      196881.07      11.804989     -56371.671      255.09219      267.76178      298.93282    
    120000   5460.1631     -1413.2458     -63777.996      7057.109      -56720.887      197355.6       11.776604     -56894.97       258.80238      268.13941      305.93646    
    121000   5582.5222      6103.0236     -63882.923      7215.2547     -56667.669      195717.83      11.875151     -55922.139      261.76789      271.18144      300.67499    
    122000   5503.5829      869.02384     -63891.72       7113.2279     -56778.492      196541.42      11.825389     -56671.888      263.14545      278.39133      301.49073    
    123000   5503.8353     -2156.4685     -63884.771      7113.5541     -56771.217      196687.92      11.816581     -57035.952      263.38183      284.43521      302.54279    
    124000   5538.6192      1706.6362     -63937.133      7158.5113     -56778.622      196286.73      11.840733     -56569.538      265.1334       285.21898      305.14093    
    125000   5523.0304      2739.4902     -63858.806      7138.3632     -56720.443      195955.62      11.86074      -56385.387      264.31295      285.62872      309.61204    
    126000   5558.9402      3120.7242     -63854.157      7184.7756     -56669.381      196315.95      11.83897      -56286.996      268.9978       285.31315      313.32578    
    127000   5520.6456      4205.6975     -63871.722      7135.2809     -56736.441      195952.74      11.860915     -56222.067      269.37996      282.87778      321.80198    
    128000   5514.0549     -4905.1468     -63797.358      7126.7626     -56670.595      197122.23      11.790546     -57274.095      270.29866      287.20388      327.55736    
    129000   5469.6777      1966.7876     -63843.772      7069.4063     -56774.365      196234.86      11.843863     -56533.473      272.00925      290.14237      325.7781     
    130000   5449.5144      17.209245     -63762.06       7043.3458     -56718.715      196916.13      11.802886     -56716.6        278.82719      286.91741      331.92514    
    131000   5447.2699     -1915.7251     -63752.471      7040.4448     -56712.027      197327.59      11.778276     -56947.972      284.86974      290.16928      330.44849    
    132000   5540.9638     -3978.8281     -63830.703      7161.5416     -56669.161      197313.53      11.779115     -57159.167      296.54243      293.71419      320.30929    
    133000   5523.1488      1123.4399     -63731.676      7138.5162     -56593.159      196647.57      11.819006     -56455.271      289.63766      300.93482      323.31511    
    134000   5509.3674     -1068.125      -63858.731      7120.7041     -56738.027      196854.08      11.806607     -56869.264      287.93041      309.31578      324.03485    
    135000   5515.5727     -2638.5354     -63714.823      7128.7244     -56586.099      197220.46      11.784673     -56910.89       290.28953      317.43402      323.97229    
    136000   5517.4283      3410.4741     -63874.904      7131.1226     -56743.781      196144.17      11.849339     -56326.259      290.64371      319.8776       325.5961     
    137000   5586.0491     -1633.7649     -63956.153      7219.8131     -56736.34       196262.75      11.84218      -56936.472      293.80123      317.75679      332.63549    
    138000   5495.5584      4447.7049     -63772.933      7102.8564     -56670.077      195810.04      11.869558     -56126.5        294.75803      324.06159      328.83773    
    139000   5465.222       3774.763      -63932.29       7063.6474     -56868.642      196171.01      11.847718     -56406.459      297.4481       331.16909      324.76298    
    140000   5539.9488      1020.122      -63766.383      7160.2297     -56606.153      196708.59      11.815339     -56480.907      291.56474      334.60228      339.50578    
    141000   5485.5824     -2495.3789     -63829.057      7089.9627     -56739.095      197045.72      11.795124     -57045.992      291.30258      336.68816      347.36255    
    142000   5470.6284     -4244.3597     -63911.582      7070.635      -56840.947      197030.27      11.796049     -57362.904      292.81904      337.05221      351.47012    
    143000   5399.3082     -1605.8699     -63845.615      6978.4557     -56867.159      196825.32      11.808332     -57064.438      296.63553      329.32312      361.4067     
    144000   5434.1951     -95.695297     -63880.24       7023.5461     -56856.694      196566.92      11.823855     -56868.435      299.70495      327.34879      368.12216    
    145000   5433.9699      1821.9154     -63974.724      7023.255      -56951.469      195692.11      11.876711     -56728.938      310.12364      318.13527      370.10173    
    146000   5500.4604      2995.0468     -63829.677      7109.1921     -56720.485      196215.25      11.845046     -56353.688      317.04353      322.14053      367.48433    
    147000   5545.7962     -3591.645      -63753.331      7167.7873     -56585.544      197056.8       11.794461     -57027.292      323.61404      327.43062      362.45965    
    148000   5433.7698     -903.75042     -63703.881      7022.9963     -56680.884      196925.76      11.80231      -56791.966      332.33041      328.92344      358.11133    
    149000   5499.3009      2753.7901     -63795.586      7107.6935     -56687.892      196641.41      11.819376     -56349.909      323.11324      331.09286      370.90277    
    150000   5437.2786     -2021.8914     -63793.157      7027.5314     -56765.625      196976.58      11.799264     -57014.203      325.49723      330.01532      380.67666    
    151000   5589.7849     -2122.3788     -63867.018      7224.6415     -56642.376      196681.96      11.816939     -56902.918      327.78514      328.29777      385.44788    
    152000   5580.1227     -1310.2765     -63990.159      7212.1534     -56778.006      196584.98      11.822769     -56938.775      346.64384      321.8508       382.4196     
    153000   5459.6416      1834.1925     -63967.577      7056.4349     -56911.142      195597.43      11.882461     -56687.219      360.49915      318.0748       380.75746    
    154000   5517.5543      67.011651     -63769.024      7131.2855     -56637.739      196859.42      11.806287     -56629.505      363.06285      324.029        383.15645    
    155000   5457.3764     -2813.5863     -63848.608      7053.5072     -56795.101      196821.15      11.808582     -57140.739      364.67448      322.67429      392.15576    
    156000   5489.4595     -1158.8834     -63689.903      7094.9737     -56594.929      197173.21      11.787498     -56737.548      367.00637      326.83132      394.33748    
    157000   5528.5329      4408.6438     -63901.543      7145.475      -56756.068      196177.1       11.84735      -56216.255      372.81874      325.98125      394.84063    
    158000   5532.3451     -607.27107     -63779.717      7150.4021     -56629.315      196993.06      11.798277     -56703.981      386.09949      325.55587      395.58753    
    159000   5536.7791     -1573.0116     -63873.51       7156.133      -56717.377      196445.43      11.831167     -56910.247      388.87904      329.64306      392.82588    
    160000   5533.014      -3559.9805     -63736.492      7151.2667     -56585.225      197784.52      11.751065     -57024.695      389.69187      331.04021      406.59227    
    161000   5526.3808     -568.75549     -63929.054      7142.6935     -56786.361      196522.28      11.826541     -56856.124      388.19058      332.07982      407.95286    
    162000   5440.2072     -1779.9544     -63899.334      7031.3165     -56868.018      196819.5       11.808681     -57086.677      399.58975      334.9153       403.49504    
    163000   5499.6583     -2442.3514     -63862.802      7108.1554     -56754.647      196701.49      11.815766     -57054.497      407.03658      335.79487      404.11654    
    164000   5521.8058      5174.3475     -63740.411      7136.7804     -56603.631      196542.46      11.825326     -55968.882      409.548        336.16554      410.21205    
    165000   5498.6986     -1448.9319     -63768.432      7106.915      -56661.517      196768.4       11.811748     -56839.465      423.10107      332.42364      414.68059    
    166000   5438.262      -2663.2379     -63823.71       7028.8024     -56794.908      197374.8       11.775458     -57122.996      419.83418      336.31657      421.08785    
    167000   5398.1668     -734.3069      -63879.871      6976.9804     -56902.89       196930.83      11.802005     -56993.147      415.59641      343.03008      416.6273     
    168000   5527.3106      1332.9585     -63782.559      7143.8952     -56638.664      197049.2       11.794916     -56474.725      412.87966      344.27259      424.35752    
    169000   5437.3153      1618.9709     -63718.418      7027.5789     -56690.84       196664.99      11.817959     -56492.113      421.38201      342.88157      426.33441    
    170000   5543.8441      1043.0113     -63904.007      7165.2644     -56738.742      196118.12      11.850913     -56611.07       432.76136      345.00012      419.18015    
    171000   5500.3266      836.78063     -63924.971      7109.0192     -56815.952      196344.25      11.837264     -56713.406      437.76077      346.13269      421.00382    
    172000   5435.2737      2622.9726     -63918.679      7024.9401     -56893.739      196045.69      11.855291     -56572.786      422.14075      351.65092      427.94978    
    173000   5548.2495      1204.3901     -63883.203      7170.9582     -56712.245      196226.31      11.844379     -56564.738      411.32937      357.7495       435.78697    
    174000   5525.1254     -741.20308     -63867.894      7141.0709     -56726.823      196803.2       11.80966      -56817.869      406.86353      366.30617      438.00327    
    175000   5492.6698     -272.75684     -64059.185      7099.1229     -56960.062      196074.74      11.853535     -56993.443      400.53095      369.87554      442.06461    
    176000   5480.5997     -916.34587     -63818.428      7083.5227     -56734.905      196483.25      11.82889      -56847.281      397.23228      379.88332      439.95073    
    177000   5460.6696     -3602.6023     -63758.152      7057.7636     -56700.389      197338.51      11.777624     -57144.118      397.04503      385.79294      442.67139    
    178000   5526.1993     -794.40032     -63721.231      7142.4589     -56578.772      197447.24      11.771138     -56676.671      403.29341      380.11041      451.62228    
    179000   5507.8401     -2922.7477     -63830.338      7118.7302     -56711.608      196709.16      11.815305     -57070.452      406.55263      380.90834      452.7477     
    180000   5524.1035     -4631.7616     -63808.985      7139.7502     -56669.235      197259.38      11.782349     -57239.496      408.72666      383.0839       460.04456    
    181000   5513.1993      631.48468     -63601.199      7125.6568     -56475.543      197395.33      11.774234     -56397.741      399.8876       389.31438      468.57604    
    182000   5432.3505     -683.89737     -63817.496      7021.162      -56796.334      196728.35      11.814152     -56880.308      396.0157       387.42612      481.15       
    183000   5516.494      -1472.8245     -63848.112      7129.9151     -56718.197      197170.89      11.787636     -56899.449      391.80864      390.54099      496.51139    
    184000   5476.8143      2707.669      -63799.75       7078.6301     -56721.119      196236.17      11.843784     -56389.481      391.42912      397.63507      490.17309    
    185000   5500.7799     -2368.4633     -63736.68       7109.605      -56627.075      197379.06      11.775204     -56918.856      394.85579      408.2613       485.26821    
    186000   5519.7086      798.27834     -63742.661      7134.0698     -56608.591      197226.19      11.784331     -56510.324      399.79016      408.44865      487.29713    
    187000   5494.2552      2401.2048     -63716.232      7101.1721     -56615.06       197231.59      11.784008     -56319.466      400.23347      409.34777      495.69532    
    188000   5531.6261      1131.8646     -63711.947      7149.4729     -56562.474      196941.05      11.801393     -56423.344      402.22544      418.46096      486.23362    
    189000   5494.0272      4242.0913     -63970.071      7100.8773     -56869.194      195359.27      11.896946     -56351.94       407.98293      420.04145      474.07468    
    190000   5480.3143     -2765.9361     -63797.304      7083.1538     -56714.15       197333.3       11.777935     -57054.818      417.59085      425.24559      474.16042    
    191000   5570.2275      529.33109     -64006.161      7199.3641     -56806.797      196344.97      11.837221     -56741.928      429.93579      415.54425      476.15326    
    192000   5494.0842     -3681.8611     -63726.669      7100.9511     -56625.718      197723.65      11.754683     -57080.094      434.41261      413.08739      490.40326    
    193000   5491.2436     -1830.2882     -63869.498      7097.2796     -56772.218      196744.77      11.813167     -56996.975      430.19809      411.25001      500.20984    
    194000   5558.6695      6971.0079     -63696.823      7184.4257     -56512.397      196894.62      11.804176     -55655.716      430.70668      416.19364      504.9961     
    195000   5491.1291     -1472.2576     -63778.296      7097.1316     -56681.165      196614.88      11.820971     -56861.836      422.12695      421.53725      513.19629    
    196000   5510.3131      236.89438     -63757.904      7121.9265     -56635.978      197147.44      11.789038     -56606.828      413.96433      433.73017      518.0606     
    197000   5570.8239     -509.31088     -63824.026      7200.135      -56623.891      196847.62      11.806995     -56686.466      424.04651      428.35397      516.60425    
    198000   5561.3205      987.21677     -63805.642      7187.852      -56617.79       196411.96      11.833183     -56496.767      433.17437      417.99476      528.75532    
    199000   5528.6409     -3351.9625     -63745.163      7145.6146     -56599.549      197481.61      11.769089     -57012.706      437.21278      417.02169      542.41372    
    200000   5499.7393      2422.7189     -63939.556      7108.2602     -56831.296      195929.62      11.862314     -56535.022      426.84945      418.6118       555.77934    
    201000   5490.9163     -705.64957     -63788.394      7096.8567     -56691.537      196699.54      11.815883     -56778.17       423.02709      419.30692      575.28553    
    202000   5528.0492     -1133.4906     -63784.008      7144.8498     -56639.158      196804.09      11.809606     -56778.391      422.25212      418.35592      588.84188    
    203000   5524.3274      1517.0011     -63760.745      7140.0395     -56620.705      196817.46      11.808804     -56434.351      415.75323      419.78715      608.31988    
    204000   5423.3476     -2291.4265     -63666.011      7009.5259     -56656.485      197404.57      11.773683     -56938.812      411.07235      425.48397      622.60153    
    205000   5552.2922     -596.3555      -63786.613      7176.1832     -56610.43       197244.63      11.78323      -56683.847      411.97862      423.47179      636.37145    
    206000   5561.6022      339.04185     -63733.758      7188.2161     -56545.542      197065.9       11.793916     -56503.841      412.24617      426.74448      635.85981    
    207000   5572.4611      9599.897      -63833.452      7202.251      -56631.201      195389.02      11.895135     -55460.472      415.60744      428.53866      622.33915    
    208000   5554.3015     -2983.4914     -63905.035      7178.7802     -56726.255      197017.41      11.796819     -57093.131      417.04371      432.56187      635.2494     
    209000   5597.9152      2020.9837     -63776.264      7235.1498     -56541.114      196531.23      11.826002     -56293.21       420.5278       437.67313      629.04083    
    210000   5492.3144     -2730.6008     -63721.444      7098.6636     -56622.78       197620         11.760848     -56959.585      429.49902      439.87039      628.39243    
    211000   5553.8408      3272.6322     -63644.011      7178.1848     -56465.826      197193.77      11.786268     -56063.035      438.48808      434.526        629.6816     
    212000   5546.108      -388.27171     -63820.89       7168.1903     -56652.699      197085.15      11.792764     -56700.461      444.73574      441.27141      616.8888     
    213000   5424.3731      3469.7473     -63796.239      7010.8514     -56785.387      196529.97      11.826078     -56359.773      446.68518      445.06097      610.10661    
    214000   5515.3746      1512.4497     -63756.225      7128.4683     -56627.756      196616.51      11.820873     -56442.151      454.0059       448.77714      602.72756    
    215000   5481.2257      1563.4713     -63900.425      7084.3318     -56816.093      195905.03      11.863803     -56624.921      453.01833      459.8256       588.13133    
    216000   5505.9336      4995.8323     -63787.817      7116.2661     -56671.55       196319.69      11.838745     -56059.396      446.58285      462.91506      609.26261    
    217000   5505.9055      1337.2471     -63756.087      7116.2298     -56639.857      196649.58      11.818885     -56475.724      445.78194      463.98902      625.83059    
    218000   5567.798       893.52623     -63793.107      7196.224      -56596.883      197159.18      11.788336     -56486.929      444.42139      470.39067      629.43527    
    219000   5618.3547      1078.123      -63743.601      7261.5672     -56482.034      196706.65      11.815456     -56349.668      451.1034       478.31639      612.40991    
    220000   5487.9781      646.07038     -63799.291      7093.0591     -56706.232      196827.56      11.808198     -56626.862      457.025        481.61818      609.7619     
    221000   5545.3564     -431.35518     -63800.46       7167.2189     -56633.241      197285.84      11.780768     -56686.356      464.47779      477.07562      619.03267    
    222000   5500.4754      2196.3119     -63891.57       7109.2115     -56782.359      196338.63      11.837603     -56513.212      468.11612      478.08058      613.52907    
    223000   5449.542      -111.29011     -63961.397      7043.3815     -56918.016      196090.41      11.852588     -56931.637      460.87943      488.67301      613.45617    
    224000   5523.1795      5771.797      -63854.713      7138.5559     -56716.157      196274.63      11.841463     -56009.083      458.92434      502.34659      612.92003    
    225000   5531.1855      1008.3918     -63753.216      7148.9034     -56604.313      196698.33      11.815956     -56480.513      463.01297      507.0999       614.80119    
    226000   5499.8221     -488.2957      -63825.353      7108.3671     -56716.986      196647.76      11.818994     -56776.919      473.095        499.14114      622.58603    
    227000   5496.4439     -3006.1179     -63903.179      7104.0009     -56799.178      196792.97      11.810274     -57168.415      472.78914      504.45677      626.07431    
    228000   5456.0294      284.9538      -63928.403      7051.7663     -56876.636      196179.79      11.847187     -56841.745      468.14485      504.94694      641.28452    
    229000   5507.4356     -3189.6105     -63773.328      7118.2073     -56655.121      197258.3       11.782413     -57047.823      476.23851      501.09719      653.63619    
    230000   5582.6029     -3662.2368     -63961.993      7215.359      -56746.634      196883.28      11.804856     -57196.667      477.65768      500.92973      660.97169    
    231000   5515.4496      2056.0867     -63697.764      7128.5653     -56569.199      196711.31      11.815176     -56316.758      476.6694       504.56017      663.36123    
    232000   5393.8105      1711.499      -63789.181      6971.35       -56817.831      196911.37      11.803172     -56607.484      485.19026      509.56608      652.75296    
    233000   5465.4233     -474.14543     -63778.332      7063.9076     -56714.424      196897.19      11.804022     -56772.694      488.15609      514.06707      647.31621    
    234000   5414.1479     -1243.5303     -63869.506      6997.6355     -56871.871      196656.42      11.818474     -57024.506      506.63964      508.92262      637.84642    
    235000   5437.3486     -3403.3495     -63920.509      7027.6219     -56892.887      196699.58      11.815881     -57310.717      506.88751      508.40568      649.14538    
    236000   5485.0607      2344.1334     -63881.609      7089.2885     -56792.32       195919.31      11.862939     -56505.672      507.13926      518.70213      635.96486    
    237000   5474.028       2879.5747     -63844.55       7075.029      -56769.521      196384.22      11.834855     -56416.561      526.38303      521.07125      620.17847    
    238000   5426.6632      1115.9577     -63751.39       7013.8113     -56737.579      196650.64      11.818821     -56600.607      539.85358      523.99037      613.86561    
    239000   5507.8914     -962.00292     -63859.196      7118.7964     -56740.4        196712.05      11.815132     -56858.513      546.61573      532.3536       600.29571    
    240000   5471.7717      5589.3452     -63942.579      7072.1127     -56870.466      195300.71      11.900514     -56189.141      543.01677      536.75795      593.98579    
    241000   5526.6431     -130.21654     -63880.985      7143.0325     -56737.952      196741.55      11.81336      -56753.942      538.84242      541.46335      610.89153    
    242000   5542.4469     -1787.2729     -63993.616      7163.4584     -56830.157      196115.59      11.851066     -57048.93       539.94196      541.66973      613.85729    
    243000   5515.9937     -2348.4028     -63691.524      7129.2684     -56562.255      196957.66      11.800398     -56850.948      543.23288      551.49263      610.25891    
    244000   5501.7208      2122.4135     -63799.246      7110.8212     -56688.424      196327.33      11.838284     -56428.348      543.96101      565.44029      595.75869    
    245000   5441.0362     -2304.0165     -63853.004      7032.388      -56820.616      196837.9       11.807578     -57103.68       534.94129      580.54567      598.00115    
    246000   5543.3988     -3876.4802     -63786.728      7164.6888     -56622.039      197096.84      11.792065     -57098.917      533.28099      578.4896       612.17778    
    247000   5560.12       -946.038       -63765.068      7186.3005     -56578.767      197153.09      11.788701     -56695.18       520.47984      594.28567      617.94147    
    248000   5551.9927      4748.0448     -63664.118      7175.7962     -56488.322      196648.02      11.818979     -55905.556      515.89397      600.09659      623.38447    
    249000   5489.8056     -30.553772     -63875.355      7095.4211     -56779.934      196415.76      11.832955     -56783.679      514.49741      601.26693      629.20711    
    250000   5428.4016      2338.1178     -63832.39       7016.0581     -56816.332      196327.04      11.838302     -56529.824      507.40492      604.98143      643.0078     
    251000   5474.794      -76.477694     -63739.542      7076.019      -56663.523      197039.79      11.795479     -56672.928      509.30232      599.50337      663.40562    
    252000   5524.3215     -2646.65       -63664.033      7140.0319     -56524.001      198144.25      11.729731     -56851.317      510.23277      599.325        678.68788    
    253000   5531.3534      185.56887     -63905.927      7149.1205     -56756.807      196289.97      11.840537     -56734.072      514.8003       598.82934      666.09425    
    254000   5373.2404     -925.69358     -63920.845      6944.7638     -56976.082      196395.06      11.834202     -57089.553      513.26355      607.92978      667.37234    
    255000   5464.6296     -2891.736      -63912.674      7062.8817     -56849.792      196502.16      11.827751     -57204.455      523.50551      608.96474      657.98036    
    256000   5492.4211     -288.75681     -63770.248      7098.8015     -56671.447      197133.44      11.789876     -56706.976      533.24993      614.2564       650.46923    
    257000   5499.977       326.94734     -63867.421      7108.5674     -56758.853      196647.58      11.819005     -56718.725      534.58715      618.9504       647.94643    
    258000   5482.9442     -2829.6833     -63916.213      7086.5529     -56829.66       196491.03      11.828422     -57176.693      534.76785      628.04166      644.94914    
    259000   5469.819       2910.8888     -63844.414      7069.589      -56774.825      195969.29      11.859913     -56418.781      537.40414      616.60207      659.17292    
    260000   5494.233       418.90215     -63810.822      7101.1433     -56709.678      196686.1       11.81669      -56658.253      554.98872      614.68362      652.39897    
    261000   5423.7316      1196.6091     -63770.855      7010.0223     -56760.832      196455.01      11.83059      -56614.107      562.08472      616.12124      649.35376    
    262000   5520.3288      5875.3074     -63824.314      7134.8715     -56689.442      195936.99      11.861868     -55970.926      563.15367      608.48731      661.51845    
    263000   5534.748      -2368.8196     -63871.471      7153.5079     -56717.963      196854.79      11.806564     -57009.013      565.19701      603.01951      681.39198    
    264000   5488.1294     -3082.7627     -63781.881      7093.2546     -56688.627      197336.16      11.777764     -57068.323      581.26044      605.03534      670.73609    
    265000   5551.8188     -1080.8266     -63769.565      7175.5714     -56593.993      197084.41      11.792809     -56726.946      587.28558      612.84891      660.8718     
    266000   5489.5285      2140.2157     -63733.936      7095.063      -56638.873      196668.2       11.817766     -56376.16       587.05124      624.89722      651.09101    
    267000   5502.4764     -3687.6457     -63885.009      7111.7978     -56773.211      197045.8       11.795119     -57226.741      576.73152      633.95804      659.902      
    268000   5456.9423      789.99126     -63927.537      7052.9462     -56874.591      196162.52      11.84823      -56777.868      568.70041      634.94755      667.56708    
    269000   5474.3266     -3499.5637     -63776.464      7075.4149     -56701.05       197021.75      11.796559     -57131.395      564.15925      639.1627       684.53999    
    270000   5487.28        1492.2062     -63766.022      7092.1568     -56673.865      196822.85      11.80848      -56490.552      553.38401      639.69028      708.66359    
    271000   5528.9978     -274.12301     -63886.9        7146.0759     -56740.824      196788.97      11.810513     -56774.494      560.87704      639.30819      703.18405    
    272000   5450.656       4626.3089     -63941.044      7044.8213     -56896.222      195409.14      11.89391      -56331.976      551.46552      648.71224      704.00345    
    273000   5550.1433     -402.75893     -63843.311      7173.4059     -56669.905      196984.17      11.79881      -56719.423      556.49458      652.44157      713.06782    
    274000   5523.289       1129.769      -63838.169      7138.6974     -56699.472      196927.39      11.802212     -56560.609      563.05795      643.59721      725.96278    
    275000   5486.2226      4526.8664     -63666.737      7090.7902     -56575.947      196632.27      11.819926     -56020.373      561.68594      641.90306      735.88735    
    276000   5499.7741      1002.6141     -63814.81       7108.3051     -56706.505      196681.8       11.816949     -56583.425      566.82549      638.94556      741.3018     
    277000   5545.6442      1322.3559     -63690.244      7167.5909     -56522.653      197306.06      11.779561     -56359.806      569.85087      647.26247      736.65297    
    278000   5454.9757      1026.7115     -63735.363      7050.4044     -56684.958      196999         11.797922     -56558.717      561.79174      656.86143      745.0044     
    279000   5523.9463     -1910.7446     -63970.049      7139.547      -56830.502      196015.21      11.857135     -57064.268      564.54474      651.67326      747.92423    
    280000   5408.9569      2246.0363     -63950.185      6990.9264     -56959.259      195692.64      11.87668      -56684.924      566.65719      653.17278      746.51488    
    281000   5482.5816     -1199.6882     -63851.369      7086.0842     -56765.285      196967.44      11.799812     -56912.771      573.61966      651.22129      755.01073    
    282000   5586.5586     -2278.6776     -63708.838      7220.4717     -56488.366      197587.9       11.762759     -56769.383      574.05686      657.17471      761.54177    
    283000   5550.22       -1959.4236     -63910.288      7173.505      -56736.783      196729.64      11.814075     -56977.379      580.84469      648.89216      761.41391    
    284000   5433.5904     -839.35663     -63779.042      7022.7644     -56756.278      196771.93      11.811536     -56859.364      589.92359      652.93284      753.7373     
    285000   5459.902      -124.29859     -64013.039      7056.7716     -56956.268      195740.36      11.873784     -56971.453      597.1826       651.78737      743.69112    
    286000   5496.8315      3344.4451     -63994.18       7104.5019     -56889.678      195633.68      11.880259     -56481.305      597.98206      662.90378      733.07764    
    287000   5513.3817     -1634.022      -63831.539      7125.8926     -56705.647      196998.28      11.797965     -56906.56       595.11437      664.70841      757.57006    
    288000   5434.8496      612.00324     -63815.619      7024.3919     -56791.227      196388.18      11.834616     -56716.211      604.38577      675.43895      732.10834    
    289000   5441.3699     -2504.8076     -63858.661      7032.8193     -56825.842      197119.98      11.790681     -57134.015      603.51416      695.83875      727.15129    
    290000   5521.9616      2749.3876     -63902.401      7136.9818     -56765.42       196210.49      11.845334     -56428.716      609.35309      690.01021      726.13194    
    291000   5496.6788     -3783.1278     -63988.122      7104.3045     -56883.818      196355.52      11.836585     -57347.461      621.9746       676.62402      735.18055    
    292000   5414.6256     -2386.2425     -63777.385      6998.253      -56779.132      197027.88      11.796192     -57072.581      633.58123      666.50118      748.46457    
    293000   5494.1091     -1425.9527     -63880.462      7100.9833     -56779.478      196613.05      11.821081     -56954.466      626.52432      668.93975      758.05252    
    294000   5517.9951     -5810.7161     -63902.888      7131.8552     -56771.033      197042.29      11.79533      -57485.659      628.37351      675.10233      759.02426    
    295000   5544.1965     -171.85348     -63875.683      7165.7197     -56709.964      196669.91      11.817663     -56731.059      642.1584       668.92017      751.66917    
    296000   5475.1876      4074.3031     -63792.01       7076.5277     -56715.482      196647.02      11.819039     -56215.412      659.78769      670.59336      739.38003    
    297000   5505.0919      582.8162      -63691.991      7115.1782     -56576.813      197266.16      11.781943     -56505.054      658.13299      671.22193      755.27957    
    298000   5513.3019      1911.9278     -63987.14       7125.7894     -56861.351      196288.04      11.840654     -56627.114      649.33326      668.08353      770.7614     
    299000   5509.5002      705.07088     -63904.486      7120.8758     -56783.611      196169.27      11.847823     -56697.282      643.40402      655.4402       805.27442    
    300000   5412.7625     -2933.7956     -63843.073      6995.8451     -56847.228      196809.24      11.809297     -57207.611      646.55128      660.64042      809.35561    
    301000   5433.0345     -3359.3738     -63777.338      7022.046      -56755.292      197191.98      11.786376     -57168.756      654.48844      658.80775      818.07404    
    302000   5475.2395      1661.5925     -63843.96       7076.5948     -56767.365      196476.06      11.829323     -56563.603      636.21451      667.54971      832.21323    
    303000   5488.7973     -2724.6406     -63918.012      7094.1178     -56823.894      196712         11.815135     -57158.42       622.67281      684.12486      845.54656    
    304000   5468.0196      100.63901     -63823.565      7067.2633     -56756.302      196702.14      11.815727     -56743.946      618.78505      688.62579      856.09764    
    305000   5564.7137     -2494.9943     -63830.414      7192.2376     -56638.177      197406.34      11.773577     -56945.588      636.13479      687.21502      847.72687    
    306000   5499.2939     -2877.128      -63898.472      7107.6844     -56790.787      197157.09      11.788462     -57144.835      638.54301      682.84263      855.48641    
    307000   5498.6972      2438.4195     -63962.154      7106.9132     -56855.241      195871.29      11.865847     -56557.136      648.39891      674.63337      848.86791    
    308000   5476.8038     -221.37676     -63838.344      7078.6167     -56759.728      196353.4       11.836713     -56786.858      662.59132      655.48154      872.08951    
    309000   5474.9274      1982.962      -63736.805      7076.1914     -56660.613      196836.48      11.807662     -56416.995      671.13509      655.91002      874.58273    
    310000   5514.5262      591.71742     -63830.313      7127.3718     -56702.941      196766.54      11.81186      -56630.271      661.64807      659.8381       891.09123    
    311000   5499.0601      1424.8373     -63911.764      7107.3823     -56804.381      196417.13      11.832872     -56629.705      669.03402      648.03239      906.58781    
    312000   5507.9767      392.23322     -63833.902      7118.9067     -56714.996      196556.01      11.824511     -56666.876      682.79433      636.45482      919.38471    
    313000   5521.6335     -961.31732     -63732.561      7136.5577     -56596.003      197508.29      11.7675       -56714.509      680.6044       645.84502      928.158      
    314000   5505.4269      824.29029     -63750.984      7115.6112     -56635.373      196786.73      11.810648     -56534.13       678.76989      654.96501      915.11905    
    315000   5465.1091     -895.09094     -63722.106      7063.5016     -56658.604      197235.96      11.783748     -56768.794      690.26314      654.70728      915.62996    
    316000   5567.8829     -1265.6572     -63708.348      7196.3338     -56512.014      197164.6       11.788012     -56667.767      705.85052      638.39718      928.99974    
    317000   5560.781      -154.17452     -63765.113      7187.1548     -56577.958      197069.78      11.793684     -56596.921      729.09066      636.51942      910.61082    
    318000   5449.0758      1442.8185     -63871.945      7042.7789     -56829.166      196252.91      11.842773     -56652.433      734.10673      627.72349      919.83793    
    319000   5577.2682      3148.8496     -63863.335      7208.4641     -56654.871      196522.4       11.826533     -56268.634      736.56622      621.86145      942.46851    
    320000   5480.8217      567.46001     -63874.031      7083.8096     -56790.221      196177.13      11.847348     -56720.739      745.31602      616.74203      949.20255    
    321000   5487.869       1190.4876     -63750.936      7092.9181     -56658.018      196803.17      11.809661     -56511.785      775.41912      606.7565       952.78876    
    322000   5578.5921     -640.48187     -63980.145      7210.1751     -56769.97       196319.7       11.838745     -56848.45       792.94284      599.52214      957.26845    
    323000   5544.6888     -624.51036     -63834.37       7166.3561     -56668.014      197108.72      11.791354     -56744.844      817.74375      594.94804      958.5737     
    324000   5474.4659      5679.2886     -63813.378      7075.5949     -56737.783      196568.36      11.823768     -56041.001      808.51871      592.5009       976.83639    
    325000   5545.184      -1703.8755     -63670.233      7166.9961     -56503.237      197711.01      11.755434     -56713.498      796.86209      603.34707      988.32384    
    326000   5477.1602      2226.8074     -63762.237      7079.0773     -56683.159      196922.64      11.802496     -56409.464      814.00976      598.82317      980.83165    
    327000   5486.2849      2478.925      -63839.902      7090.8706     -56749.032      196219.23      11.844806     -56445.437      825.82182      589.96455      996.62863    
    328000   5495.1697     -3044.1906     -63605.868      7102.354      -56503.514      197902.7       11.744048     -56879.536      831.46797      595.6981       1006.0064    
    329000   5531.6622     -2188.9953     -63877.957      7149.5196     -56728.438      197374.59      11.775471     -56998.104      812.61997      601.97092      1022.4513    
    330000   5478.7164      3442.4655     -63801.344      7081.0885     -56720.255      196137.08      11.849767     -56298.831      806.10522      606.40948      1015.9941    
    331000   5477.5418     -1057.5176     -63948.957      7079.5705     -56869.386      196325.15      11.838416     -56998.971      816.76027      612.53799      999.58404    
    332000   5473.5911      282.22727     -63828.888      7074.4643     -56754.423      196641.67      11.81936      -56719.785      824.51785      617.1587       997.14185    
    333000   5523.1161     -1595.3149     -63819.423      7138.474      -56680.949      197184.36      11.786831     -56877.289      827.53042      633.6105       969.19428    
    334000   5470.8923      812.46488     -63881.3        7070.9761     -56810.324      196121.78      11.850692     -56710.87       840.90785      638.08923      944.10114    
    335000   5498.278       725.8222      -63728.948      7106.3714     -56622.576      197093.39      11.792272     -56533.289      844.24758      636.32145      960.99157    
    336000   5505.2126     -2951.4679     -63725.337      7115.3342     -56610.003      197287.08      11.780694     -56973.438      821.02768      646.08096      977.04847    
    337000   5528.5065      509.21701     -63809.983      7145.4409     -56664.542      196842.17      11.807321     -56601.98       823.96739      652.85049      963.06159    
    338000   5552.129       3437.1724     -63926.619      7175.9723     -56750.647      195860.37      11.866509     -56330.465      831.72529      647.04944      963.57477    
    339000   5485.6978      3428.4483     -63745.088      7090.1118     -56654.976      196585.39      11.822744     -56234.309      863.93558      642.02629      956.59126    
    340000   5440.8364     -422.69845     -63770.523      7032.1297     -56738.393      196637.88      11.819588     -56790.272      870.0128       646.13188      949.18488    
    341000   5402.6275     -5057.4067     -63717.434      6982.7458     -56734.688      198092.7       11.732783     -57359.985      864.82501      660.752        947.85166    
    342000   5491.4371      3625.3561     -63889.445      7097.5297     -56791.915      195715.07      11.875318     -56349.057      879.3403       651.52135      932.54756    
    343000   5562.5293      4780.3928     -63877.938      7189.4144     -56688.523      195877.93      11.865444     -56104.085      876.95676      666.35601      915.52804    
    344000   5456.7598     -2547.7232     -63916.357      7052.7102     -56863.647      196489.32      11.828524     -57176.097      901.38758      671.12918      898.1446     
    345000   5458.9413     -2274.5831     -63822.66       7055.5298     -56767.13       197034.87      11.795773     -57046.857      916.58723      675.57625      893.75879    
    346000   5497.565       1755.6196     -63710.351      7105.4499     -56604.901      197373.43      11.77554      -56388.625      922.99658      688.04099      877.20003    
    347000   5473.3244     -201.50987     -63840.684      7074.1196     -56766.564      196270.38      11.841719     -56791.249      912.78859      697.81819      863.6456     
    348000   5559.594       2625.8464     -63761.04       7185.6206     -56575.419      196423.92      11.832463     -56253.495      897.40908      715.39195      859.96971    
    349000   5513.2997      5618.5009     -63793.057      7125.7865     -56667.27       196570.37      11.823647     -55977.939      865.279        727.81727      879.9409     
    350000   5450.8179     -58.664198     -63868.895      7045.0305     -56823.864      196614.44      11.820997     -56831.063      860.18139      738.86526      874.66611    
    351000   5471.0951     -1331.3801     -63933.287      7071.2383     -56862.049      196897.67      11.803993     -57025.667      892.46485      727.4101       875.97819    
    352000   5479.2494     -1890.0507     -63879.217      7081.7775     -56797.44       196868.93      11.805717     -57029.681      883.96574      723.41022      896.49709    
    353000   5503.8491      1197.6259     -63732.636      7113.5719     -56619.064      196764.43      11.811986     -56471.983      862.92285      724.22813      921.86809    
    354000   5536.6008      5233.6455     -63756.329      7155.9025     -56600.427      196556.63      11.824474     -55958.358      860.94821      729.78873      922.30979    
    355000   5537.9875      750.32939     -63652.042      7157.6948     -56494.347      197308.3       11.779427     -56401.944      871.74767      726.89359      933.36162    
    356000   5550.3773      1246.0048     -63960.834      7173.7084     -56787.125      196381.2       11.835037     -56634.401      856.63928      720.50086      955.93309    
    357000   5483.2516      1060.3566     -63748.574      7086.9502     -56661.624      196262.95      11.842168     -56531.732      838.68005      721.7766       982.42723    
    358000   5576.1711      1070.8746     -63938.52       7207.0461     -56731.474      196271.03      11.84168      -56600.289      851.23162      710.98375      997.17968    
    359000   5454.2802     -691.91804     -63572.35       7049.5055     -56522.845      197778.77      11.751406     -56608.258      876.18486      705.0147       1003.794     
    360000   5467.8223     -5348.4922     -63663.231      7067.0083     -56596.223      198101.39      11.732269     -57257.538      888.77456      699.19935      1015.9831    
    361000   5542.5145      1257.8912     -63808.773      7163.5458     -56645.227      196759.85      11.812261     -56490.748      883.53575      691.84222      1026.5336    
    362000   5546.5054     -77.149768     -63874.741      7168.704      -56706.037      196266.55      11.84195      -56715.488      911.5955       685.3437       1012.354     
    363000   5513.1917      4386.5842     -63962.705      7125.647      -56837.058      195660.88      11.878607     -56301.36       920.71082      685.37803      1005.0319    
    364000   5477.2359     -1523.4003     -63671.176      7079.1751     -56592.001      197579.36      11.763267     -56779.866      907.04588      700.81324      1021.0641    
    365000   5526.1719      5387.7503     -63803.092      7142.4235     -56660.668      196096.22      11.852236     -56001.242      878.93283      709.55423      1025.6788    
    366000   5533.2165      1024.8195     -63926.22       7151.5285     -56774.692      196583.55      11.822855     -56648.949      887.84711      698.91609      1055.8812    
    367000   5505.5358     -4463.2583     -63757.28       7115.7519     -56641.528      197851.4       11.747092     -57192.692      886.51213      703.27271      1077.1007    
    368000   5478.3026     -1475.9813     -64017.984      7080.5538     -56937.431      196276.69      11.841339     -57118.248      893.9634       704.7802       1057.9766    
    369000   5481.7505      463.80054     -63827.158      7085.0101     -56742.148      196441.08      11.831429     -56685.282      902.34927      717.45184      1037.254     
    370000   5520.2666     -3120.928      -63793.145      7134.7911     -56658.354      197177.9       11.787217     -57042.443      874.80636      731.3819       1064.9275    
    371000   5501.4407      2771.1749     -63794.802      7110.4592     -56684.342      196436.16      11.831725     -56344.58       869.03515      728.52137      1075.3097    
    372000   5506.8889     -3401.1578     -63878.843      7117.5008     -56761.343      197340.02      11.777534     -57180.263      878.20716      736.79002      1070.8035    
    373000   5535.6186      1925.7747     -63650.881      7154.6331     -56496.247      197000.2       11.79785      -56259.458      871.6973       731.48559      1093.3423    
    374000   5552.6843     -371.11493     -63861.949      7176.69       -56685.259      196203.95      11.845729     -56730.706      869.55826      726.94618      1108.5485    
    375000   5560.823       3742.3045     -63757.47       7187.2091     -56570.261      196796.01      11.810091     -56110.593      871.33937      737.57211      1104.5258    
    376000   5532.4011      1089.9567     -63851.648      7150.4746     -56701.174      196617.38      11.820821     -56567.415      860.79607      745.04328      1109.196     
    377000   5422.0183     -2237.4245     -63894.58       7007.8079     -56886.773      196659.44      11.818292     -57161.406      882.77365      740.13062      1100.1588    
    378000   5454.7264      268.31276     -63846.722      7050.0822     -56796.64       196320.66      11.838686     -56763.762      898.71228      728.46701      1110.6933    
    379000   5546.6622     -979.35914     -63889.078      7168.9067     -56720.172      196790.58      11.810417     -56840.464      922.02969      720.33836      1114.4523    
    380000   5496.0356     -1197.6258     -63722.605      7103.4732     -56619.132      197374.57      11.775472     -56766.669      950.33643      722.53349      1098.3532    
    381000   5455.1401     -678.96054     -63683.34       7050.6168     -56632.724      197828.06      11.748478     -56716.558      949.75108      729.40164      1100.208     
    382000   5486.6844     -109.00128     -63829.594      7091.387      -56738.207      196414.2       11.833049     -56751.57       945.11374      714.44009      1128.02      
    383000   5447.4309     -155.52933     -63834.548      7040.653      -56793.895      196890.79      11.804405     -56813.008      944.15723      718.85663      1135.6538    
    384000   5490.3542     -2935.4932     -63872.337      7096.1302     -56776.207      196759.13      11.812304     -57136.707      977.09185      704.4388       1141.2414    
    385000   5467.1814      692.10689     -63943.312      7066.18       -56877.132      196248.42      11.843045     -56792.357      989.2753       704.01376      1133.956     
    386000   5504.9704      2059.6794     -63668.754      7115.0212     -56553.733      197109.48      11.791309     -56300.339      982.10729      712.12861      1147.7563    
    387000   5498.592      -3823.5473     -63917.106      7106.7772     -56810.329      196993.82      11.798232     -57280.449      982.1686       700.47261      1182.1748    
    388000   5468.0574     -1933.3592     -63787.558      7067.3122     -56720.246      196696.96      11.816038     -56957.602      987.03321      694.20506      1199.8924    
    389000   5511.6663      1100.6174     -63793.897      7123.6755     -56670.222      196979.65      11.799081     -56534.907      1003.5189      700.963        1182.7807    
    390000   5371.3019     -4491.2874     -63871.883      6942.2584     -56929.624      197204.92      11.785602     -57482.437      999.05502      704.5055       1190.4935    
    391000   5539.9996     -3773.9938     -63726.323      7160.2954     -56566.027      197868.33      11.746088     -57032.114      998.94568      697.96471      1229.3077    
    392000   5442.726      -4929.6799     -63817.58       7034.572      -56783.008      197194.27      11.786239     -57389.748      992.15907      700.52623      1229.2046    
    393000   5495.9933     -3963.127      -63888.034      7103.4184     -56784.615      196998.65      11.797942     -57271.909      990.28588      702.51659      1233.9946    
    394000   5457.8576     -916.33086     -63810.493      7054.1292     -56756.364      196998.39      11.797958     -56869.033      990.34282      709.17648      1232.1527    
    395000   5487.5767      1450.7799     -63804.798      7092.5403     -56712.258      196663.2       11.818066     -56534.178      1002.129       711.59874      1220.037     
    396000   5427.4051      2567.9252     -63873.635      7014.7701     -56858.864      196008.3       11.857553     -56544.708      987.19189      710.04648      1249.9874    
    397000   5490.6593     -2063.0674     -63783.236      7096.5245     -56686.711      197188.9       11.78656      -56940.625      971.65107      720.38942      1271.5094    
    398000   5455.7592     -1100.0735     -64042.576      7051.4171     -56991.159      196006.49      11.857662     -57125.739      990.41129      706.05067      1277.3796    
    399000   5499.2099     -1504.4518     -63750.243      7107.5759     -56642.667      196948.42      11.800951     -56827.603      995.18622      710.49067      1280.816     
    400000   5495.8135     -1303.4927     -63884.302      7103.1861     -56781.115      196712.97      11.815076     -56941.156      997.56117      720.54034      1255.2231    
    401000   5544.4175     -1867.1197     -63821.679      7166.0054     -56655.673      197222.15      11.784573     -56885.509      977.30769      734.69667      1266.9424    
    402000   5544.7849      2809.9071     -63850.003      7166.4803     -56683.523      196151.38      11.848904     -56339.512      974.76029      727.59374      1284.1642    
    403000   5473.9007     -342.47452     -63844.026      7074.8644     -56769.162      196919.83      11.802665     -56811.254      1003.0599      719.68769      1297.9455    
    404000   5495.3544      1039.213      -63795.259      7102.5927     -56692.666      196674.46      11.81739      -56565.098      995.52522      712.61319      1338.7994    
    405000   5524.1974      2956.7632     -63825.204      7139.8716     -56685.332      196623.97      11.820424     -56322.469      974.85899      722.80888      1348.3877    
    406000   5410.6821     -1043.9558     -63940.848      6993.1561     -56947.692      196803.54      11.809639     -57075.927      968.44877      729.65846      1353.1855    
    407000   5443.2573     -2426.3915     -63824.135      7035.2587     -56788.877      197076.13      11.793304     -57087.335      970.76771      729.77953      1365.2854    
    408000   5506.1676     -2772.2557     -63793.261      7116.5685     -56676.693      197139.41      11.789519     -57017.804      941.66672      730.33652      1422.3274    
    409000   5515.7764      1199.0287     -63732.013      7128.9876     -56603.026      196985.88      11.798708     -56455.606      942.43306      728.24894      1439.4349    
    410000   5461.2373     -821.73035     -63700.196      7058.4974     -56641.699      196856.88      11.806439     -56742.663      939.58919      724.66407      1466.9844    
    411000   5557.5697      339.35374     -63920.016      7183.0043     -56737.012      196245.24      11.843236     -56695.446      940.19475      737.80652      1428.207     
    412000   5482.5258     -1965.5085     -63807.89       7086.0122     -56721.877      196988.18      11.79857      -56963.537      949.73705      736.77103      1442.9786    
    413000   5512.75       -607.10055     -63850.836      7125.0761     -56725.76       196644.08      11.819216     -56800.273      951.53684      735.37699      1448.206     
    414000   5515.0934      1586.6062     -63711.953      7128.1049     -56583.848      197192.03      11.786373     -56388.572      972.38782      740.29403      1426.3982    
    415000   5508.155      -1239.6521     -63850.939      7119.1371     -56731.802      196637.2       11.819629     -56883.946      961.50295      749.53831      1415.5037    
    416000   5478.3506     -2255.1829     -63874.988      7080.6158     -56794.372      196929.36      11.802094     -57071.565      941.34995      761.5071       1431.1386    
    417000   5481.1608      2032.6009     -63817.891      7084.2478     -56733.643      196128.31      11.850297     -56484.825      938.6493       760.02247      1442.1679    
    418000   5539.1118      2437.7699     -63886.711      7159.148      -56727.563      196273.04      11.841559     -56428.926      956.77501      758.07552      1434.5516    
    419000   5486.2532      1974.8161     -63640.497      7090.8297     -56549.667      197395.82      11.774204     -56306.36       996.30081      749.60232      1431.1358    
    420000   5525.0708     -3651.1742     -63823.968      7141.0003     -56682.968      196906.99      11.803434     -57131.696      1009.539       750.86017      1409.767     
    421000   5390.8019      1680.1884     -63847.063      6967.4615     -56879.601      196700.48      11.815827     -56673.323      1015.6508      760.62758      1381.905     
    422000   5496.0399     -230.95802     -63999.716      7103.4787     -56896.237      195862.85      11.866358     -56924.472      1034.226       769.43259      1325.667     
[...]
    898000   5507.7831     -2263.1228     -63857.31       7118.6565     -56738.653      196831.46      11.807964     -57016.684      3038.07        2327.0859      1475.0415    
    899000   5390.9201     -4853.9383     -63904.02       6967.6143     -56936.405      196687.99      11.816577     -57532.289      3011.0545      2288.4197      1507.8801    
    900000   5500.6689      1762.8399     -63746.516      7109.4616     -56637.054      196746.6       11.813057     -56420.578      3005.88        2252.484       1538.8455    
    901000   5521.4767      495.25895     -63825.232      7136.3551     -56688.877      196967.23      11.799825     -56627.991      2993.8951      2264.0263      1547.1221    
    902000   5396.0809     -2376.1866     -63744.318      6974.2845     -56770.034      197557.31      11.76458      -57063.031      2899.2085      2332.4596      1549.9729    
    903000   5458.2211      1881.4034     -63716.326      7054.5989     -56661.727      196967.03      11.799836     -56430.432      2878.9697      2331.4305      1552.3019    
    904000   5496.3369     -2252.0932     -63910.46       7103.8626     -56806.598      196536.18      11.825705     -57082.858      2851.0415      2355.6293      1547.4069    
    905000   5503.4229      2269.7193     -63841.234      7113.021      -56728.213      196238.99      11.843614     -56450.212      2768.3839      2387.8253      1560.4659    
    906000   5589.9216     -845.44564     -63812.808      7224.8182     -56587.99       196736.9       11.813639     -56691.805      2774.2936      2419.8006      1550.8055    
    907000   5531.1518      1027.2472     -63890.364      7148.8599     -56741.504      196394.9       11.834211     -56615.584      2801.3348      2404.1429      1549.3946    
    908000   5496.0551     -3233.4289     -63690.382      7103.4984     -56586.884      197319.41      11.778764     -56985.103      2843.4462      2406.1045      1548.7902    
    909000   5462.9012      191.68047     -63941.781      7060.6478     -56881.133      196092.78      11.852444     -56857.673      2782.9451      2407.0171      1558.0332    
    910000   5488.6806      1828.7926     -63886.783      7093.967      -56792.816      196258.06      11.842462     -56568.798      2812.0326      2442.3318      1534.7368    
    911000   5447.263       1865.7938     -63870.554      7040.4359     -56830.118      196113.61      11.851185     -56601.736      2844.8053      2455.2198      1518.0242    
    912000   5563.485      -761.77587     -63822.798      7190.6497     -56632.148      196742.86      11.813282     -56725.692      2764.265       2489.0313      1540.226     
    913000   5525.368       2360.1487     -63756.097      7141.3845     -56614.712      196717.15      11.814825     -56324.93       2680.8262      2490.6952      1574.356     
    914000   5458.0416     -141.67201     -63894.018      7054.367      -56839.651      196398.51      11.833994     -56857.017      2681.5515      2492.0709      1573.74      
    915000   5504.6878     -2406.7534     -63772.857      7114.6559     -56658.201      197104.74      11.791593     -56954.287      2731.2438      2515.9092      1552.6939    
    916000   5560.2483      822.40951     -63970.362      7186.4663     -56783.896      196100.6       11.851972     -56683.236      2737.1817      2512.7092      1541.3421    
    917000   5561.5054      2815.9648     -63781.246      7188.091      -56593.155      196228.14      11.844268     -56248.266      2804.4902      2496.2614      1531.7047    
    918000   5471.7711     -191.30512     -63772.55       7072.112      -56700.438      196764.07      11.812008     -56723.932      2844.7747      2462.0931      1551.3135    
    919000   5480.3036      2662.119      -63701.672      7083.14       -56618.532      197050.05      11.794865     -56291.12       2892.954       2419.1296      1567.3457    
    920000   5426.468       654.83034     -63730.148      7013.559      -56716.589      196647.21      11.819027     -56636.217      2838.3734      2402.8214      1594.1695    
    921000   5550.1815     -2385.1626     -63938.067      7173.4552     -56764.612      196858.19      11.806361     -57057.675      2829.3532      2433.3058      1586.6215    
    922000   5485.0031     -2570.6811     -63885.852      7089.214      -56796.638      196871.4       11.805568     -57112.517      2847.6034      2437.7126      1578.9886    
    923000   5497.0614     -2062.2504     -63747.471      7104.799      -56642.672      197321.34      11.778649     -56896.655      2904.8396      2447.115       1561.5561    
    924000   5447.8868     -1216.4813     -63886.606      7041.2421     -56845.364      196798.2       11.80996      -56994.787      2922.0117      2369.5958      1601.0557    
    925000   5472.8761     -487.66363     -63765.232      7073.5402     -56691.692      197267.66      11.781854     -56751.736      3004.6598      2341.3663      1599.105     
    926000   5523.6973      1154.304      -63840.561      7139.2251     -56701.336      196438.22      11.831602     -56559.81       2957.8188      2328.4219      1614.0496    
    927000   5561.148       3558.7381     -63861.214      7187.6291     -56673.585      196089.65      11.852633     -56238.033      2945.3428      2310.2495      1630.7361    
    928000   5542.1341      284.73396     -63993.322      7163.0542     -56830.268      196200.63      11.845929     -56795.399      2995.503       2283.4616      1637.733     
    929000   5430.2099      5974.6313     -63844.805      7018.3952     -56826.41       196056.66      11.854628     -56095.301      2960.2746      2312.4895      1632.218     
    930000   5444.3007     -5076.597      -63799.701      7036.6073     -56763.093      197516.63      11.767003     -57388.937      2963.8958      2339.5518      1639.6467    
    931000   5505.2282     -186.14597     -63853.678      7115.3543     -56738.323      196830.85      11.808        -56761.192      2917.3609      2314.5243      1666.7882    
    932000   5444.2163     -1805.9624     -63888.662      7036.4982     -56852.164      196800.65      11.809813     -57073.996      2960.3481      2262.2823      1689.8967    
    933000   5501.2569     -1028.1991     -63765.025      7110.2215     -56654.804      196809.75      11.809266     -56781.107      2949.8911      2282.42        1684.6547    
    934000   5525.1141      2203.8352     -63891.886      7141.0563     -56750.83       196371.44      11.835625     -56480.716      3066.063       2266.6371      1647.8136    
    935000   5431.8419     -5069.575      -63879.54       7020.5045     -56859.035      197253.33      11.78271      -57483.18       3121.297       2272.5654      1640.8725    
    936000   5509.6746     -2772.9399     -63892.097      7121.1013     -56770.996      196805.87      11.809499     -57111.615      3079.0676      2248.0349      1671.6775    
    937000   5471.8995      1146.7252     -63748.269      7072.2779     -56675.992      196954.54      11.800585     -56535.025      3080.8645      2258.7056      1670.5117    
    938000   5422.0461     -2581.1014     -63719.605      7007.8438     -56711.761      197524.94      11.766508     -57029.973      3068.2162      2251.526       1695.8317    
    939000   5504.6791     -2386.3825     -63734.262      7114.6446     -56619.617      197298.04      11.78004      -56913.485      3074.7233      2256.5231      1690.9969    
    940000   5479.1109      1830.3001     -63815.871      7081.5985     -56734.273      196214.2       11.84511      -56510.121      3107.3675      2249.6636      1672.4037    
    941000   5522.255       1118.4346     -63790.468      7137.361      -56653.107      196862.51      11.806101     -56515.683      3105.6003      2249.2757      1688.4776    
    942000   5515.7444     -3058.8219     -63836.058      7128.9463     -56707.111      196814.65      11.808972     -57082.863      2995.0164      2281.493       1711.6005    
    943000   5426.2914      238.21505     -63957.62       7013.3307     -56944.289      196134.22      11.84994      -56915.128      2958.0916      2318.9471      1691.7724    
    944000   5517.88       -739.89476     -63904.787      7131.7065     -56773.081      196720.11      11.814647     -56863.927      2950.6158      2318.0024      1709.4589    
    945000   5552.4952      1014.5573     -63746.148      7176.4456     -56569.702      197131.43      11.789996     -56444.871      2957.9698      2377.2529      1677.1284    
    946000   5503.5874      3096.6743     -63745.199      7113.2336     -56631.965      197013.19      11.797072     -56251.179      2892.823       2387.7511      1700.0889    
    947000   5502.1381      243.72489     -63795.598      7111.3605     -56684.237      196811.08      11.809187     -56654.298      2847.8877      2387.1742      1719.5579    
    948000   5456.9723     -891.46426     -63861.082      7052.9849     -56808.097      196452.41      11.830747     -56917.405      2808.5795      2363.8425      1750.9469    
    949000   5509.5776      1887.0831     -63847.302      7120.9758     -56726.326      196844.52      11.80718      -56494.478      2831.115       2345.4197      1764.3838    
    950000   5509.3091      273.45981     -63819.955      7120.6287     -56699.327      196623.22      11.820469     -56665.767      2901.648       2281.5782      1780.9955    
    951000   5551.9836      561.36717     -63757.999      7175.7844     -56582.214      196677.26      11.817222     -56513.303      2925.2068      2274.3039      1785.6899    
    952000   5455.3826     -4682.2563     -63896.562      7050.9303     -56845.631      196744.86      11.813161     -57420.605      2977.5307      2269.5838      1773.8875    
    953000   5468.7435     -2665.5975     -63781.176      7068.1989     -56712.978      197343.16      11.777347     -57041.304      3005.0879      2300.2252      1752.9323    
    954000   5441.2811      993.06694     -63784.605      7032.7045     -56751.901      196597         11.822046     -56630.045      2965.3728      2341.8633      1730.7743    
    955000   5449.4944     -2575.7991     -63816.048      7043.32       -56772.728      196884.18      11.804802     -57089.256      2947.8802      2338.9431      1746.5635    
    956000   5544.5342     -763.42637     -63970.476      7166.1563     -56804.32       196132.99      11.850014     -56897.776      2935.2891      2334.1616      1744.0962    
    957000   5550.7594     -223.41342     -63814.969      7174.2022     -56640.767      196645.19      11.819149     -56668.188      2864.4834      2375.4678      1759.5761    
    958000   5502.1463     -2236.1007     -63844.045      7111.3711     -56732.674      196658.98      11.81832      -57007.144      2910.0907      2370.2668      1748.1106    
    959000   5445.3971     -4530.8518     -63871.158      7038.0243     -56833.134      197123.74      11.790456     -57390.587      2955.0923      2367.8674      1741.5721    
    960000   5480.1686     -1706.2375     -63900.968      7082.9655     -56818.003      196632.46      11.819914     -57027.407      2879.412       2371.552       1767.3715    
    961000   5507.8772      2261.3128     -63803.291      7118.7781     -56684.512      196578.49      11.823159     -56407.061      2830.0551      2377.5079      1790.637     
    962000   5532.5551      3333.1768     -63714.018      7150.6735     -56563.344      196491.16      11.828414     -56154.563      2831.7262      2340.5932      1818.8717    
    963000   5512.0339     -293.16649     -63853.578      7124.1505     -56729.427      196492.55      11.82833      -56765.382      2815.8953      2322.0963      1847.2881    
    964000   5497.0322     -4078.7426     -63668.259      7104.7613     -56563.498      197844.73      11.747489     -57067.161      2824.7614      2367.9305      1835.9126    
    965000   5484.9461     -701.29924     -63854.752      7089.1402     -56765.611      196538.37      11.825572     -56851.64       2855.86        2362.9453      1806.3114    
    966000   5573.3524     -2227.0735     -63721.457      7203.403      -56518.054      197491.55      11.768497     -56792.573      2914.0756      2374.8118      1795.9796    
    967000   5525.6146      3535.4717     -63790.187      7141.7032     -56648.484      196236.39      11.84377      -56215.456      2908.4067      2425.5451      1746.0981    
    968000   5514.0156     -565.83024     -63972.804      7126.7118     -56846.092      196447.76      11.831027     -56915.47       2989.5883      2432.3501      1719.2659    
    969000   5525.1998      356.7733      -63854.316      7141.1671     -56713.149      196621.19      11.820591     -56669.365      3031.3365      2416.7175      1718.9199    
    970000   5565.6863      1471.2004     -63894.455      7193.4947     -56700.96       196461.33      11.83021      -56520.56       2978.1195      2411.222       1744.2474    
    971000   5443.2612     -810.06568     -63824.645      7035.2637     -56789.381      196770.93      11.811596     -56888.869      2923.2997      2423.7546      1769.7071    
    972000   5493.9883      2226.4505     -63841.19       7100.8271     -56740.362      196343.74      11.837295     -56467.515      2984.4972      2385.4258      1771.1122    
    973000   5472.7047     -1746.4515     -63836.464      7073.3187     -56763.145      196851.1       11.806785     -56977.723      3060.2275      2392.506       1747.0157    
    974000   5430.5315      2403.5954     -63867.678      7018.811      -56848.867      196020.87      11.856792     -56554.796      3066.0539      2336.5576      1774.3307    
    975000   5461.3688      2632.8799     -63853.335      7058.6672     -56794.668      196187.54      11.84672      -56472.27       3091.485       2349.9039      1762.3819    
    976000   5528.5367     -2690.4722     -63786.431      7145.4799     -56640.951      197269.02      11.781773     -56972.217      3045.0833      2373.8014      1785.8361    
    977000   5442.8073      2576.2697     -63871.991      7034.677      -56837.314      195967.44      11.860025     -56522.202      3021.978       2335.0676      1803.9502    
    978000   5497.5119      1146.3203     -63912.865      7105.3813     -56807.484      195772.04      11.871863     -56667.413      2988.9199      2323.1016      1827.6584    
    979000   5439.5279     -1450.8552     -63843.906      7030.4386     -56813.467      196495.56      11.828149     -56991.404      2995.1875      2293.1537      1867.7389    
    980000   5555.4424     -2337.75       -63855.846      7180.2547     -56675.591      196818.9       11.808717     -56962.772      3041.514       2290.0877      1858.8382    
    981000   5453.7766      247.3658      -63736.881      7048.8546     -56688.027      197060.61      11.794233     -56657.602      3046.6678      2293.2964      1862.3348    
    982000   5482.409      -2012.4097     -63846.702      7085.8611     -56760.841      196976.9       11.799245     -57008.254      3025.538       2328.6149      1848.1245    
    983000   5495.7997     -2189.6296     -63731.277      7103.1682     -56628.109      197166.39      11.787905     -56897.568      2964.1694      2374.1199      1847.1121    
    984000   5452.5129      102.36331     -63922.986      7047.2212     -56875.764      196362.58      11.836159     -56863.219      3002.9815      2366.101       1825.2166    
    985000   5488.8531      5342.922      -63771.299      7094.1899     -56677.109      196362.5       11.836164     -56022.281      2982.1931      2412.3711      1806.0583    
    986000   5427.7334     -3119.1276     -63778.304      7015.1945     -56763.11       196880.4       11.805029     -57146.398      3006.8648      2420.2557      1803.0197    
    987000   5487.9006     -1851.3494     -63825.241      7092.9589     -56732.282      196615.55      11.820931     -56959.476      2997.9153      2403.2803      1819.9749    
    988000   5469.9297      905.91888     -63923.387      7069.7321     -56853.655      196202.75      11.845801     -56742.716      3066.4987      2422.0464      1774.0679    
    989000   5523.985       1810.078      -63877.648      7139.597      -56738.051      196384.93      11.834812     -56516.182      3074.0782      2450.7213      1760.6688    
    990000   5541.7649      2286.6054     -63986.873      7162.577      -56824.296      195645.09      11.879566     -56545.074      3090.0665      2460.8169      1736.3688    
    991000   5551.6627      2188.5705     -63919.692      7175.3696     -56744.322      196020.87      11.856792     -56476.558      3176.3979      2401.0624      1756.1972    
    992000   5522.5447      4243.6332     -63866.87       7137.7354     -56729.135      195526.17      11.886791     -56211.251      3067.3571      2424.0663      1778.2134    
    993000   5500.4958     -451.36879     -63808.694      7109.2378     -56699.457      197174         11.78745      -56755.005      3078.9019      2461.3334      1782.1721    
    994000   5473.2066     -3202.5802     -63775.003      7073.9673     -56701.036      197070.3       11.793653     -57094.958      3107.3486      2408.0898      1811.9201    
    995000   5483.1153     -1921.9104     -63846.593      7086.774      -56759.819      196642.45      11.819313     -56995.704      3126.0504      2385.7431      1816.1325    
    996000   5510.7404      358.70727     -63924.403      7122.4787     -56801.925      196294.2       11.840282     -56757.977      3126.1512      2405.2806      1801.1014    
    997000   5510.1354      5470.0628     -63876.729      7121.6968     -56755.032      195891.34      11.864632     -56086.23       3115.8196      2410.8628      1801.0007    
    998000   5501.2454      3033.9707     -63890.374      7110.2066     -56780.167      196049.18      11.85508      -56408.918      3105.9718      2400.3651      1817.72      
    999000   5460.1261      1847.8979     -63679.321      7057.0611     -56622.26       196900.3       11.803836     -56395.161      3080.5216      2380.8361      1863.5076    
   1000000   5487.4557      1936.8751     -63882.209      7092.3838     -56789.825      196226.37      11.844375     -56552.607      3054.7807      2409.6438      1844.1624    
   1001000   5419.4355     -6.9374346     -63745.681      7004.4696     -56741.212      197035         11.795766     -56742.065      3082.3775      2443.8354      1828.6162    
   1002000   5557.6818      494.40884     -63906.543      7183.1492     -56723.394      196249.69      11.842968     -56662.834      3035.9076      2485.0326      1808.9997    
   1002307   5472.3749      2659.1549     -63907.018      7072.8924     -56834.126      195854.27      11.866878     -56509.064      3032.3688      2493.6283      1798.8499    
Loop time of 947.609 on 40 procs for 1000000 steps with 10000 atoms

Performance: 91.177 ns/day, 0.263 hours/ns, 1055.287 timesteps/s, 10.553 Matom-step/s
95.5% CPU use with 40 MPI tasks x 1 OpenMP threads

MPI task timing breakdown:
Section |  min time  |  avg time  |  max time  |%varavg| %total
---------------------------------------------------------------
Pair    | 649.13     | 659.38     | 672.82     |  18.6 | 69.58
Neigh   | 13.406     | 13.518     | 14.195     |   3.3 |  1.43
Comm    | 157.8      | 172.66     | 183.6      |  39.5 | 18.22
Output  | 0.16568    | 0.51398    | 1.3757     |  34.5 |  0.05
Modify  | 84.284     | 86.424     | 89.65      |  13.5 |  9.12
Other   |            | 15.12      |            |       |  1.60

Nlocal:            250 ave         265 max         239 min
Histogram: 4 6 3 3 7 6 9 1 0 1
Nghost:        1379.35 ave        1407 max        1359 min
Histogram: 4 5 4 5 7 6 4 1 2 2
Neighs:        10182.6 ave       11228 max        9642 min
Histogram: 6 7 7 3 7 6 2 1 0 1

Total # of neighbors = 407306
Ave neighs/atom = 40.7306
Neighbor list builds = 30456
Dangerous builds = 0
	unfix           feq

write_data	liq_or_sol.data nocoeff
System init for write_data ...






Total wall time: 0:15:51
