

# Styles
	units        metal
	atom_style   atomic
	pair_style   eam/fs

# Neighbour list
	neighbor        2.0 bin
	neigh_modify    check yes


# Boundary conditions
	boundary p p p


# ----------------- Atom Definition Section -----------------

read_data "solid.data"
Reading data file ...
  orthogonal box = (-0.016319894 -0.026116788 -0.077393605) to (31.66632 31.676117 79.202394)
  2 by 2 by 10 MPI processor grid
  reading atom labelmap ...
  reading atoms ...
  5000 atoms
  reading velocities ...
  5000 velocities
  read_data CPU = 0.064 seconds

read_data "liquid.data" add append shift 37 0 0
Reading data file ...
WARNING: Non-zero image flags with growing box leads to bad coordinates (src/read_data.cpp:589)
  orthogonal box = (-0.016319894 -0.026116788 -0.077393605) to (68.66632 31.676117 79.202394)
  4 by 2 by 5 MPI processor grid
  reading atom labelmap ...
  reading atoms ...
  5000 atoms
  reading velocities ...
  5000 velocities
  read_data CPU = 0.062 seconds

# ----------------- Settings Section -----------------

include "coexistence.in.settings"
# ----- SETTINGS -----
# Forcefield
	pair_coeff * * W-Mo.eam.fs W Mo

# Collection of atoms
	group alloy type  1 2
10000 atoms in group alloy


# ----------------- Run Section -----------------

include "coexistence.in.run"
# Thermo output
	compute msd all msd

	thermo          1000
	thermo_style    custom step temp press pe ke etotal vol density enthalpy c_msd[1] c_msd[2] c_msd[3]
	thermo_modify   flush yes

# Dump configuration
	dump            d1 all custom 25000 coexistence_W-Mo.dump id type element x y z xu yu zu vx vy vz
	dump_modify     d1 element W Mo


# ----- EQUILIBRATION AT Ti -----
	minimize 1e-25 1e-25 5000 10000
Neighbor list info ...
  update: every = 1 steps, delay = 0 steps, check = yes
  max neighbors/atom: 2000, page size: 100000
  master list distance cutoff = 7.3
  ghost atom cutoff = 7.3
  binsize = 3.65, bins = 19 9 22
  1 neighbor lists, perpetual/occasional/extra = 1 0 0
  (1) pair eam/fs, perpetual
      attributes: half, newton on
      pair build: half/bin/atomonly/newton
      stencil: half/bin/3d
      bin: standard
Per MPI rank memory allocation (min/avg/max) = 4.855 | 4.862 | 4.87 Mbytes
   Step          Temp          Press          PotEng         KinEng         TotEng         Volume        Density        Enthalpy       c_msd[1]       c_msd[2]       c_msd[3]   
         0   3147.3145      737794.18     -12116.362      4067.8164     -8048.5456      172623.26      13.463879      71443.593      0              0              0            
      1000   3147.3145      10128.626     -76235.047      4067.8164     -72167.23       172623.26      13.463879     -71075.942      0.54472029     0.202136       0.20734378   
      2000   3147.3145     -180.17847     -76281.213      4067.8164     -72213.397      172623.26      13.463879     -72232.81       0.70364905     0.21621516     0.21542002   
      2307   3147.3145     -272.33714     -76281.705      4067.8164     -72213.888      172623.26      13.463879     -72243.231      0.70611361     0.21605454     0.21504173   
Loop time of 3.98224 on 40 procs for 2307 steps with 10000 atoms

95.7% CPU use with 40 MPI tasks x 1 OpenMP threads

Minimization stats:
  Stopping criterion = energy tolerance
  Energy initial, next-to-last, final = 
       -12116.36204945   -76281.704776988   -76281.704776988
  Force two-norm initial, final = 224306.09 4.4897918e-05
  Force max component initial, final = 94125.607 1.3486957e-05
  Final line search alpha, max atom move = 1 1.3486957e-05
  Iterations, force evaluations = 2307 4350

MPI task timing breakdown:
Section |  min time  |  avg time  |  max time  |%varavg| %total
---------------------------------------------------------------
Pair    | 2.5697     | 2.7519     | 3.0519     |   8.6 | 69.11
Neigh   | 0.020401   | 0.02314    | 0.026711   |   1.3 |  0.58
Comm    | 0.64052    | 0.85954    | 1.0526     |  11.2 | 21.58
Output  | 0.00018631 | 0.00022322 | 0.0015988  |   0.0 |  0.01
Modify  | 0          | 0          | 0          |   0.0 |  0.00
Other   |            | 0.3474     |            |       |  8.72

Nlocal:            250 ave         278 max         230 min
Histogram: 4 8 5 5 8 0 0 1 4 5
Nghost:        1459.78 ave        1553 max        1344 min
Histogram: 6 4 0 6 4 0 0 2 12 6
Neighs:        12457.9 ave       15369 max       10337 min
Histogram: 8 2 2 15 3 0 0 0 4 6

Total # of neighbors = 498316
Ave neighs/atom = 49.8316
Neighbor list builds = 48
Dangerous builds = 0

	fix             feq all npt temp ${Ti} ${Ti} ${tdamp} aniso ${press} ${press} ${pdamp}
	fix             feq all npt temp 4250 ${Ti} ${tdamp} aniso ${press} ${press} ${pdamp}
	fix             feq all npt temp 4250 4250 ${tdamp} aniso ${press} ${press} ${pdamp}
	fix             feq all npt temp 4250 4250 0.1 aniso ${press} ${press} ${pdamp}
	fix             feq all npt temp 4250 4250 0.1 aniso 1 ${press} ${pdamp}
	fix             feq all npt temp 4250 4250 0.1 aniso 1 1 ${pdamp}
	fix             feq all npt temp 4250 4250 0.1 aniso 1 1 1
	run             1000000    # 1 ns
Per MPI rank memory allocation (min/avg/max) = 5.007 | 5.013 | 5.021 Mbytes
   Step          Temp          Press          PotEng         KinEng         TotEng         Volume        Density        Enthalpy       c_msd[1]       c_msd[2]       c_msd[3]   
      2307   3147.3145     -272.33714     -76281.705      4067.8164     -72213.888      172623.26      13.463879     -72243.231      0.70611361     0.21605454     0.21504173   
      3000   2888.3028     -4120.6068     -71701.728      3733.051      -67968.677      178328.95      13.033098     -68427.318      2.8248626      0.49272338     0.48429113   
      4000   4232.5924      1335.4234     -68081.521      5470.508      -62611.013      189400.41      12.271245     -62453.146      16.947825      2.0647328      2.244818     
      5000   4294.9969     -662.44356     -68134.419      5551.164      -62583.255      189306.75      12.277316     -62661.527      25.395099      3.5222822      3.6642408    
      6000   4228.371      -1113.2908     -68477.495      5465.0519     -63012.443      186361.17      12.471368     -63141.939      15.582464      5.0235064      5.1553114    
      7000   4260.3604     -314.11471     -68748.669      5506.3973     -63242.272      184548.07      12.593893     -63278.453      11.884707      6.1950566      6.5717213    
      8000   4299.7787     -3880.7412     -68694.758      5557.3444     -63137.413      184204.74      12.617366     -63583.588      9.8756574      7.5719224      7.9826954    
      9000   4212.3544      973.63042     -68985.629      5444.3509     -63541.278      182733.98      12.718919     -63430.232      9.0618122      8.7804104      8.9150683    
     10000   4303.8762     -1577.3368     -69096.944      5562.6403     -63534.304      182372.99      12.744095     -63713.85       9.6531381      9.5926476      9.6062335    
     11000   4254.3451     -1574.8397     -69011.065      5498.6227     -63512.442      182181.12      12.757517     -63691.515      9.5746792      10.622723      10.788247    
     12000   4273.0987     -4328.7808     -69035.25       5522.8612     -63512.389      182238.4       12.753507     -64004.763      9.7811875      11.422167      11.87601     
     13000   4231.7996      4829.776      -69108.542      5469.4833     -63639.059      181219.55      12.82521      -63092.771      10.369223      12.226302      12.431439    
     14000   4261.6933      2508.4075     -69088.113      5508.1201     -63579.993      181056.91      12.836731     -63296.526      10.542882      12.752298      12.50611     
     15000   4199.1764      1346.1685     -69084.32       5427.3187     -63657.001      181103.16      12.833452     -63504.836      11.179768      13.663251      13.207946    
     16000   4247.5747      179.97939     -69253.48       5489.8722     -63763.608      180708.27      12.861496     -63743.308      11.692557      14.215695      13.502544    
     17000   4312.7832      1122.1873     -69044.31       5574.1524     -63470.158      181123.8       12.83199      -63343.296      11.938917      14.405287      14.21385     
     18000   4247.8358      1320.1398     -69062.732      5490.2096     -63572.522      180869.52      12.85003      -63423.492      12.369119      15.102633      14.531658    
     19000   4260.9088      2609.2783     -69027.776      5507.1061     -63520.67       180640         12.866357     -63226.482      12.623239      16.007065      14.601173    
     20000   4249.7113      1233.5835     -68977.684      5492.6336     -63485.051      181076.92      12.835312     -63345.632      12.901193      16.09822       14.978885    
     21000   4217.9216      1625.2293     -68975.18       5451.5464     -63523.634      180943.14      12.844801     -63340.087      13.57545       17.391055      15.490452    
     22000   4216.0165      960.3291      -68791.887      5449.084      -63342.803      181717.13      12.790092     -63233.883      13.815367      17.269338      16.518297    
     23000   4206.8427      3566.2097     -68890.396      5437.2273     -63453.169      181008.39      12.840171     -63050.271      14.517824      17.627099      17.109134    
     24000   4324.5146     -947.01428     -68804.198      5589.3149     -63214.884      181828.31      12.782271     -63322.359      14.957488      17.762701      17.60235     
     25000   4234.4421     -2480.1597     -68763.544      5472.8987     -63290.646      181930.23      12.77511      -63572.273      15.323433      18.434902      17.871654    
     26000   4228.7964      1612.1837     -68956.864      5465.6018     -63491.262      181163.33      12.82919      -63308.967      15.760938      19.209863      18.192544    
     27000   4193.3856      926.50158     -68872.442      5419.8342     -63452.608      181455.49      12.808533     -63347.676      16.123323      19.005451      19.259646    
     28000   4245.8598      1476.0185     -68860.105      5487.6557     -63372.449      181299.07      12.819584     -63205.426      16.666686      19.794686      19.174806    
     29000   4270.8269      654.40646     -68937.78       5519.925      -63417.855      181398.16      12.812582     -63343.763      16.787997      19.975034      19.855449    
     30000   4206.4077     -795.65266     -68976.653      5436.665      -63539.988      181227.92      12.824618     -63629.987      17.168151      20.522135      20.132171    
     31000   4236.5633     -1732.2726     -68856.085      5475.6403     -63380.444      181632.95      12.79602      -63576.826      18.153802      21.357561      21.28727     
     32000   4250.0526      207.74572     -68981.805      5493.0749     -63488.73       181280.5       12.820898     -63465.225      18.442408      22.449858      20.729454    
     33000   4278.584       4282.4173     -68752.474      5529.9509     -63222.523      181251.03      12.822983     -62738.062      19.067665      22.188506      21.982359    
     34000   4231.6197      4736.9773     -68664.136      5469.2508     -63194.885      181586.85      12.799268     -62658.007      19.263475      22.929851      22.387432    
     35000   4234.5615     -2204.9748     -68687.385      5473.053      -63214.332      182013.99      12.769231     -63464.827      19.735763      23.12878       23.168907    
     36000   4252.7114      3013.8541     -68444.665      5496.5112     -62948.153      181963.02      12.772808     -62605.863      20.081038      23.133528      23.601744    
     37000   4266.4539      3509.0751     -68561.478      5514.2731     -63047.205      181900.01      12.777232     -62648.809      20.546807      23.529217      23.466281    
     38000   4271.1904      6116.9268     -68408.772      5520.3948     -62888.378      181922.42      12.775658     -62193.819      21.116022      24.6321        23.685326    
     39000   4241.7992     -58.02743      -68273.983      5482.4074     -62791.576      182641.08      12.725389     -62798.19       21.705331      25.894206      24.886904    
     40000   4215.3522      904.83266     -68088.314      5448.2255     -62640.088      183050.02      12.69696      -62536.71       22.505539      26.637075      24.550215    
     41000   4284.8906     -2173.3792     -68111.616      5538.1019     -62573.514      183285.21      12.680667     -62822.144      23.610693      27.43796       24.737111    
     42000   4221.5023     -2791.5219     -68021.409      5456.1743     -62565.234      183728.41      12.650078     -62885.35       23.885212      28.255129      25.923949    
     43000   4224.3755      2136.6015     -67904.04       5459.8879     -62444.152      183657.44      12.654967     -62199.233      24.069391      28.803354      27.329295    
     44000   4242.5112      1536.8089     -67813.491      5483.3277     -62330.163      183776.37      12.646777     -62153.885      24.880195      28.669887      29.361606    
     45000   4205.6824      4119.1353     -67880.476      5435.7276     -62444.749      183573.84      12.66073      -61972.787      25.261233      29.525487      30.159249    
     46000   4259.12        137.12264     -67629.813      5504.7941     -62125.019      184505.77      12.596781     -62109.228      26.415834      30.151864      30.863288    
     47000   4228.3796      3784.0295     -67514.711      5465.063      -62049.648      184385.94      12.604967     -61614.164      27.344322      30.426693      31.964708    
     48000   4280.3489      1039.6655     -67335.632      5532.2319     -61803.4        184948.78      12.566608     -61683.386      27.607194      31.936207      33.188718    
     49000   4251.562      -3067.0236     -67402.755      5495.0256     -61907.73       185304.42      12.542489     -62262.455      28.925504      32.800625      33.5605      
     50000   4254.8054      173.55304     -67459.039      5499.2177     -61959.821      184938.8       12.567286     -61939.788      29.512162      34.03646       33.991497    
     51000   4212.5195     -3729.6947     -67361.821      5444.5643     -61917.257      185194.91      12.549906     -62348.371      30.309336      35.812325      33.923109    
     52000   4300.5691      2175.5483     -67370.007      5558.3659     -61811.641      184929.13      12.567943     -61560.531      30.658714      37.257842      34.863817    
     53000   4273.2815      2690.4808     -67466.041      5523.0975     -61942.944      184569.24      12.592449     -61633.003      31.262113      38.469239      36.47148     
     54000   4275.5034     -1231.6977     -67415.184      5525.9692     -61889.215      185063.93      12.558789     -62031.486      32.178447      39.22007       38.074884    
     55000   4264.2046      3289.4044     -67579.966      5511.3659     -62068.6        184181.02      12.618992     -61690.461      33.403859      40.018495      39.300475    
     56000   4226.6578      2531.6694     -67360.075      5462.8376     -61897.237      184621.09      12.588912     -61605.509      34.115297      40.746876      39.394912    
     57000   4216.2615      2074.4538     -67329.786      5449.4007     -61880.385      184836.03      12.574273     -61641.064      34.871778      41.780494      40.398319    
     58000   4299.3986      1437.6177     -67400.938      5556.8531     -61844.084      184574.33      12.592102     -61678.468      36.269874      43.087532      41.027013    
     59000   4190.8874     -684.9006      -67315.773      5416.6054     -61899.168      184867.7       12.572119     -61978.195      37.053621      45.601094      40.718176    
     60000   4251.9027     -48.862113     -67475.656      5495.466      -61980.19       184745.54      12.580432     -61985.824      37.62575       45.825594      41.183914    
     61000   4187.1983      832.92848     -67351.309      5411.8373     -61939.472      184854.55      12.573013     -61843.371      38.778511      46.870317      42.634926    
     62000   4265.3823      2857.2547     -67598.583      5512.888      -62085.695      184127.81      12.622638     -61757.329      39.735093      47.790461      43.608254    
     63000   4248.6136     -559.99121     -67299.424      5491.2149     -61808.21       185143.5       12.553391     -61872.921      41.018416      48.980218      46.15466     
     64000   4224.9698     -3384.4764     -67429.442      5460.6559     -61968.786      185280.37      12.544117     -62360.177      41.94669       49.30942       47.219077    
     65000   4159.6196     -995.97883     -67359.638      5376.1927     -61983.445      184885.75      12.570892     -62098.378      42.871852      51.730656      47.342132    
     66000   4262.8862     -1275.9997     -67297.566      5509.6618     -61787.904      185050.03      12.559732     -61935.281      44.098966      53.376225      48.052745    
     67000   4265.7032      1195.1318     -67397.48       5513.3028     -61884.177      184966.48      12.565405     -61746.202      44.537394      54.706187      48.385365    
     68000   4280.279       2525.324      -67399.204      5532.1416     -61867.063      184716.6       12.582403     -61575.915      44.961423      56.648323      47.569705    
     69000   4267.153       1933.6912     -67342.074      5515.1766     -61826.897      185020.36      12.561746     -61603.593      46.325614      59.873079      48.157182    
     70000   4258.2576     -990.02986     -67555.935      5503.6796     -62052.255      184908.33      12.569356     -62166.516      47.364341      61.391942      48.658969    
     71000   4287.8893      184.29427     -67430.616      5541.9777     -61888.638      185062.92      12.558857     -61867.351      47.868276      60.298602      50.382202    
     72000   4283.2106     -2550.9488     -67431.779      5535.9305     -61895.848      185450.93      12.532581     -62191.119      48.578236      61.064267      51.227964    
     73000   4223.5177      368.38878     -67446.767      5458.7792     -61987.987      184662.68      12.586077     -61945.528      49.342289      63.649184      50.927893    
     74000   4165.6164      2089.6551     -67342.179      5383.9434     -61958.236      184790.85      12.577347     -61717.22       50.271877      65.087024      52.325882    
     75000   4186.8105     -298.94608     -67429.725      5411.3362     -62018.389      184787.8       12.577555     -62052.868      51.196003      67.23735       53.404549    
     76000   4285.8949      1104.1172     -67422.933      5539.4        -61883.533      184838.14      12.574129     -61756.154      52.192907      69.303601      53.661656    
     77000   4287.1892      4983.5245     -67409.538      5541.0729     -61868.465      184525.67      12.595423     -61294.503      52.899978      70.612508      54.295655    
     78000   4240.355      -752.38975     -67523.575      5480.5409     -62043.034      184745.03      12.580467     -62129.791      52.805401      71.035651      54.463763    
     79000   4257.1796     -2919.4437     -67451.919      5502.2862     -61949.633      184907.62      12.569405     -62286.567      53.935197      71.557365      54.642228    
     80000   4204.1241     -5067.6623     -67408.24       5433.7134     -61974.526      185451.39      12.53255      -62561.106      55.358895      71.602586      55.727022    
     81000   4258.8249     -2932.4356     -67414.173      5504.4127     -61909.76       185330.31      12.540738     -62248.967      55.475796      73.783866      56.773086    
     82000   4255.1408     -110.57025     -67352.919      5499.6512     -61853.267      185245.37      12.546488     -61866.052      56.479943      75.516645      57.566436    
     83000   4250.3125      836.11856     -67417.945      5493.4107     -61924.534      184890.33      12.57058      -61828.046      57.421793      77.612493      58.353141    
     84000   4205.1432      2153.8172     -67414.024      5435.0306     -61978.994      184447.48      12.600762     -61731.04       58.423496      76.639743      59.352556    
     85000   4265.0726     -2280.645      -67486.21       5512.4877     -61973.722      184945.7       12.566817     -62236.986      58.753688      76.431637      60.484668    
     86000   4253.6407      1405.4622     -67419.749      5497.7123     -61922.037      184784.07      12.577809     -61759.94       60.061858      77.329876      61.098402    
     87000   4236.8176     -603.55151     -67492.207      5475.969      -62016.238      184780.21      12.578072     -62085.846      61.358644      78.980275      61.315657    
     88000   4270.3951     -5452.2279     -67351.757      5519.367      -61832.39       185570.46      12.524508     -62463.888      62.718772      78.929024      62.643055    
     89000   4239.1971     -5034.9309     -67421.805      5479.0444     -61942.761      185296.44      12.54303      -62525.065      64.226039      79.938078      62.961574    
     90000   4216.9841      1217.9757     -67333.169      5450.3346     -61882.835      184969.3       12.565214     -61742.221      66.106329      79.15353       63.496044    
     91000   4278.7745     -2123.5309     -67372.765      5530.197      -61842.568      185358.8       12.53881      -62088.243      70.893177      79.175676      63.822298    
     92000   4263.0973      1447.6487     -67431.2        5509.9347     -61921.266      184825.58      12.574984     -61754.266      73.828948      77.345703      64.704648    
     93000   4265.6051      349.2057      -67350.831      5513.176      -61837.655      184921.8       12.568441     -61797.35       72.868866      80.3852        65.506965    
     94000   4219.3197      689.20102     -67404.864      5453.3534     -61951.51       184844.73      12.573681     -61871.997      75.362095      78.233629      67.024919    
     95000   4284.0836     -587.43783     -67341.34       5537.0589     -61804.281      185353.59      12.539162     -61872.241      73.411971      80.106102      68.899311    
     96000   4273.4021     -1592.1805     -67299.748      5523.2533     -61776.495      185503.26      12.529045     -61960.841      77.492188      79.596381      69.275938    
     97000   4286.2556      3015.065      -67212.207      5539.8662     -61672.341      185009.25      12.5625       -61324.18       75.685245      81.870555      70.050815    
     98000   4238.6593      2295.5126     -67525.424      5478.3493     -62047.075      184319.31      12.609524     -61782.992      74.600753      83.124961      70.835912    
     99000   4189.1235     -5973.3867     -67323.911      5414.3257     -61909.585      185926.3       12.500538     -62602.773      76.557633      83.862679      72.170866    
    100000   4238.1778     -5585.5628     -67259.789      5477.727      -61782.062      185751.99      12.512269     -62429.637      78.088379      82.574402      73.691551    
    101000   4199.491      -2423.0497     -67400.717      5427.7253     -61972.992      184931.15      12.567806     -62252.672      77.584717      83.542723      74.299243    
    102000   4287.3229     -3589.52       -67360.798      5541.2456     -61819.553      185207.58      12.549047     -62234.492      78.422541      84.868021      75.388903    
    103000   4225.8831     -2798.0277     -67359.235      5461.8363     -61897.399      185355.9       12.539006     -62221.103      80.948319      84.745403      75.861999    
    104000   4271.1405     -914.47928     -67314.075      5520.3303     -61793.744      185271.44      12.544722     -61899.492      77.999432      87.896906      76.993211    
    105000   4221.7324     -4041.2659     -67345.35       5456.4718     -61888.878      185567.53      12.524706     -62356.946      79.622555      87.967561      78.020034    
    106000   4282.0313     -2750.4597     -67388.467      5534.4064     -61854.06       185305.84      12.542394     -62172.175      78.894597      90.67778       78.879983    
    107000   4250.7383     -1805.0411     -67504.488      5493.9611     -62010.526      184925.91      12.568162     -62218.867      78.967493      91.027327      80.003508    
    108000   4179.7662     -1326.1407     -67413.255      5402.2316     -62011.023      184945.67      12.566819     -62164.105      79.140043      93.745682      80.877403    
    109000   4256.8552     -3436.426      -67491.232      5501.867      -61989.365      185234.74      12.547207     -62386.665      81.426613      92.59487       81.548486    
    110000   4209.94       -4121.2114     -67357.144      5441.2304     -61915.914      185570.5       12.524506     -62393.249      82.3045        93.819519      82.7569      
    111000   4190.5891     -2046.0997     -67298.116      5416.2199     -61881.896      185295.37      12.543102     -62118.533      85.263298      93.638829      82.523029    
    112000   4257.3072     -2325.724      -67498.553      5502.4511     -61996.102      184747.84      12.580276     -62264.282      88.172373      92.500665      83.582373    
    113000   4261.7123      2479.5899     -67364.038      5508.1447     -61855.893      184828.44      12.57479      -61569.846      90.001519      91.246418      85.198643    
    114000   4227.4392      3501.6709     -67347.364      5463.8476     -61883.516      184616.11      12.589252     -61480.024      88.375116      94.688432      85.873174    
    115000   4251.1994     -1533.7745     -67429.668      5494.557      -61935.111      184911.12      12.569167     -62112.128      90.476172      93.281113      88.032709    
    116000   4222.2635      920.76366     -67468.303      5457.1582     -62011.145      184625.68      12.588599     -61905.041      92.120351      94.650508      87.548365    
    117000   4217.4872      765.21422     -67446.517      5450.9849     -61995.532      184639.21      12.587677     -61907.347      93.474246      94.402302      88.897143    
    118000   4306.103      -1861.3256     -67395.963      5565.5183     -61830.445      185176.14      12.551178     -62045.573      100.15157      94.563516      89.041766    
    119000   4248.2436     -3753.7223     -67434.102      5490.7367     -61943.365      185061.61      12.558946     -62376.944      105.20575      93.215967      90.042829    
    120000   4297.5279      772.60529     -67392.006      5554.4353     -61837.571      184826.08      12.57495      -61748.444      102.70516      95.213962      90.95782     
    121000   4225.3145      701.66099     -67479.625      5461.1015     -62018.523      184575.74      12.592006     -61937.69       105.46778      97.655118      90.191438    
    122000   4275.9171     -388.76561     -67474.762      5526.504      -61948.258      184888.07      12.570734     -61993.121      105.29602      102.06947      90.45729     
    123000   4233.202      -394.06631     -67424.475      5471.2958     -61953.179      184918.1       12.568693     -61998.661      106.33357      103.53061      91.295169    
    124000   4243.7588     -2404.4073     -67336.71       5484.9402     -61851.77       185318.19      12.541558     -62129.879      106.83161      104.95825      92.686746    
    125000   4272.3203      1009.1443     -67502.91       5521.8552     -61981.055      184531.64      12.595015     -61864.826      107.98049      107.4595       92.673842    
    126000   4263.7586     -1365.628      -67385.402      5510.7895     -61874.612      185022.05      12.561631     -62032.317      111.78985      106.54628      94.133528    
    127000   4285.418      -515.0778      -67422.838      5538.7836     -61884.054      185055.53      12.559359     -61943.547      116.31077      106.87293      94.974572    
    128000   4202.7184      2240.4336     -67406.677      5431.8966     -61974.781      184559.77      12.593095     -61716.698      119.48634      108.6911       95.164225    
    129000   4253.2033     -4963.206      -67323.363      5497.1469     -61826.216      185426.04      12.534263     -62400.627      125.34989      110.61903      96.098164    
    130000   4185.8033     -552.081       -67382.7        5410.0343     -61972.666      185126.09      12.554572     -62036.457      121.31974      113.23326      97.247408    
    131000   4295.6142     -1359.0447     -67396.453      5551.962      -61844.491      185203.76      12.549307     -62001.59       122.96272      114.45633      98.237533    
    132000   4255.1674      2289.3869     -67354.369      5499.6856     -61854.683      184947.59      12.566689     -61590.407      121.39138      115.2065       99.287217    
    133000   4220.355       235.96353     -67404.847      5454.6915     -61950.156      184763.81      12.579188     -61922.944      113.40842      118.69889      100.45985    
    134000   4292.2985      1386.5655     -67395.925      5547.6764     -61848.249      184663.54      12.586019     -61688.436      108.90188      121.39029      101.91647    
    135000   4226.6341     -2491.972      -67442.2        5462.8071     -61979.393      184934.55      12.567575     -62267.034      109.56003      120.27747      103.78204    
    136000   4186.9469      1782.6552     -67490.158      5411.5124     -62078.646      184591.69      12.590917     -61873.261      108.84052      121.53262      104.91191    
    137000   4279.3429     -2738.0081     -67349.712      5530.9317     -61818.78       185425.52      12.534298     -62135.66       110.85607      122.60673      105.70591    
    138000   4248.0951      1627.4634     -67349.705      5490.5447     -61859.16       184943.27      12.566982     -61671.298      110.78457      124.00697      106.26762    
    139000   4267.803       2236.5295     -67546.043      5516.0167     -62030.026      184232.12      12.615491     -61772.851      110.23691      127.42112      106.84895    
    140000   4305.9584      6409.4795     -67428.665      5565.3315     -61863.334      184350.07      12.60742      -61125.844      111.14594      128.59551      108.1604     
    141000   4238.0522     -2725.3691     -67351.785      5477.5645     -61874.22       185312.01      12.541976     -62189.444      111.94917      130.14755      109.43138    
    142000   4186.2018     -2211.0777     -67487.657      5410.5494     -62077.108      184928.32      12.567998     -62332.317      115.34065      128.17459      110.30379    
    143000   4223.5959      41.082429     -67454.6        5458.8803     -61995.72       184668.84      12.585658     -61990.985      116.02113      129.69759      110.51974    
    144000   4244.2821     -125.42805     -67370.202      5485.6166     -61884.585      185022.4       12.561607     -61899.07       115.41392      131.90121      111.87947    
    145000   4237.8852      93.122916     -67391.118      5477.3487     -61913.769      185039.93      12.560417     -61903.014      116.75657      134.97482      111.75383    
    146000   4274.7554      626.79922     -67504.874      5525.0024     -61979.871      185023.61      12.561525     -61907.487      118.85619      135.04821      112.20525    
    147000   4264.9108      671.25781     -67407.382      5512.2786     -61895.104      184725.88      12.581771     -61817.71       121.04721      135.84126      112.29706    
    148000   4202.1532     -1677.1468     -67480.717      5431.1661     -62049.551      184892.42      12.570438     -62243.095      122.68937      136.36965      113.37272    
    149000   4265.9722     -1697.5719     -67382.216      5513.6504     -61868.565      185073.98      12.558107     -62064.659      121.803        137.05159      114.91595    
    150000   4276.6045      23.161815     -67521.464      5527.3923     -61994.072      184712.23      12.582701     -61991.402      118.40392      141.79268      115.93686    
    151000   4256.9033     -481.81882     -67350.84       5501.9291     -61848.911      185189.16      12.550296     -61904.603      116.42105      146.80621      117.38687    
    152000   4307.6134     -1369.6901     -67409.198      5567.4706     -61841.727      185083.28      12.557475     -61999.954      117.56544      149.66103      117.47561    
    153000   4187.4508      2025.7711     -67429.733      5412.1638     -62017.569      184553.54      12.593521     -61784.222      119.33812      151.46173      116.70047    
    154000   4231.6287     -53.633073     -67435.547      5469.2624     -61966.285      184920.51      12.568529     -61972.475      121.36273      149.70747      117.30956    
    155000   4276.3732     -461.65147     -67276.691      5527.0934     -61749.598      185472.86      12.531099     -61803.04       121.67811      155.35998      117.45877    
    156000   4238.9336      1141.1566     -67339.839      5478.7038     -61861.135      185076.59      12.55793      -61729.313      126.32282      153.23555      116.86862    
    157000   4278.8942      1646.6115     -67430.365      5530.3518     -61900.013      184679.94      12.584901     -61710.211      128.08808      152.34634      117.46113    
    158000   4217.1079      1995.6296     -67481.016      5450.4947     -62030.522      184420.87      12.60258      -61800.812      129.2609       153.13627      118.00786    
    159000   4264.951      -1343.6883     -67413.96       5512.3305     -61901.629      184810.77      12.575992     -62056.624      130.29124      156.33578      118.81837    
    160000   4239.8716     -1744.9043     -67240.963      5479.9161     -61761.047      185334.69      12.540441     -61962.892      131.0437       155.27639      120.29793    
    161000   4237.513       726.68574     -67403          5476.8677     -61926.132      184948.13      12.566652     -61842.246      128.4251       157.46235      121.39797    
    162000   4276.011      -2889.0008     -67245.126      5526.6253     -61718.501      185586.18      12.523447     -62053.145      131.01498      158.15991      122.31855    
    163000   4244.3727     -5627.5784     -67496.056      5485.7337     -62010.323      185446.02      12.532912     -62661.694      129.60176      157.58691      124.12215    
    164000   4194.8038      615.73412     -67375.254      5421.6672     -61953.586      184780.99      12.578019     -61882.573      129.41384      156.21712      125.82342    
    165000   4269.3167     -1331.2795     -67462.555      5517.9731     -61944.582      184781.99      12.577951     -62098.121      129.39294      158.45322      126.40756    
    166000   4256.2311     -2069.2384     -67501.114      5501.0604     -62000.054      184724.99      12.581831     -62238.63       131.01312      158.55879      127.1182     
    167000   4233.3429     -13.173017     -67458.757      5471.478      -61987.279      184692.96      12.584014     -61988.798      137.59982      156.52846      126.28618    
    168000   4244.6108     -714.87156     -67290.032      5486.0414     -61803.99       185281.4       12.544048     -61886.661      139.88519      156.44352      127.83505    
    169000   4230.1237     -1396.0672     -67407.533      5467.3173     -61940.216      185003.45      12.562894     -62101.42       139.01516      161.14475      127.74566    
    170000   4227.0556     -4633.9276     -67375.765      5463.3518     -61912.413      185383.68      12.537127     -62448.593      137.1336       162.56263      129.7845     
    171000   4186.7524      2151.365      -67349.136      5411.261      -61937.874      184715.01      12.582512     -61689.844      138.49253      159.81576      130.70501    
    172000   4243.4773      3422.8123     -67382.751      5484.5764     -61898.175      184732.61      12.581313     -61503.521      136.60234      165.68826      131.1628     
    173000   4254.602      -5318.0173     -67390.144      5498.9548     -61891.189      185665.7       12.518083     -62507.459      137.85581      165.39391      133.10121    
    174000   4189.3541     -3165.1588     -67398.384      5414.6237     -61983.761      185225.62      12.547826     -62349.681      139.8847       163.04949      133.75509    
    175000   4241.0494     -2872.8464     -67379.446      5481.4384     -61898.007      185416.31      12.534921     -62230.475      138.13272      165.89507      135.37242    
    176000   4201.1053      400.11608     -67434.683      5429.8117     -62004.872      184635.14      12.587955     -61958.762      137.3306       166.74104      135.89151    
    177000   4236.6408     -729.18223     -67415.887      5475.7405     -61940.147      184672.35      12.585418     -62024.195      138.02465      166.08619      137.42822    
    178000   4246.4783      355.10753     -67444.596      5488.4552     -61956.141      184754.42      12.579828     -61915.192      137.78         170.55602      137.73803    
    179000   4237.6238     -1242.4814     -67374.495      5477.0109     -61897.484      185044.38      12.560115     -62040.985      139.47109      173.27027      138.30063    
    180000   4236.0546     -4071.5058     -67419.386      5474.9828     -61944.404      185346.65      12.539632     -62415.413      142.98998      174.78894      137.55264    
    181000   4219.5442     -1673.9782     -67300.68       5453.6435     -61847.036      185443.6       12.533076     -62040.79       142.08856      180.03948      137.48037    
    182000   4231.784      -3545.6466     -67428.552      5469.4631     -61959.088      185129.34      12.554351     -62368.783      142.76506      185.80212      136.84765    
    183000   4291.6756      679.42298     -67437.045      5546.8713     -61890.174      184812.32      12.575887     -61811.802      146.27499      188.08006      136.69572    
    184000   4239.2654     -2274.4384     -67308.743      5479.1326     -61829.611      185409.78      12.535362     -62092.817      147.5159       189.69703      137.56308    
    185000   4177.0644     -2342.3526     -67405.478      5398.7396     -62006.739      185163.46      12.552038     -62277.444      149.16408      188.91947      137.95226    
    186000   4245.4734      805.89946     -67417.427      5487.1563     -61930.27       184814.07      12.575767     -61837.308      148.3846       191.22982      138.56373    
    187000   4270.3695     -2443.8535     -67396.675      5519.3338     -61877.341      185111.54      12.555558     -62159.698      151.99883      187.44156      140.07602    
    188000   4229.833       998.37372     -67437.209      5466.9415     -61970.268      184688.16      12.584341     -61855.182      153.44261      191.7835       139.67414    
    189000   4216.1629      2263.5556     -67289.419      5449.2733     -61840.146      185117.04      12.555185     -61578.612      152.16481      192.58672      141.52238    
    190000   4269.2543     -2551.1038     -67353.573      5517.8925     -61835.68       185353.8       12.539148     -62130.814      153.76113      190.91796      142.29337    
    191000   4221.3239      2789.8776     -67407.783      5455.9438     -61951.839      184736.37      12.581057     -61630.157      152.10657      186.04772      144.5199     
    192000   4191.4172     -4153.6027     -67367.707      5417.2901     -61950.417      185296.74      12.543009     -62430.794      153.67811      189.49198      144.96634    
    193000   4329.1872     -5519.3686     -67379.146      5595.3541     -61783.792      185698.15      12.515896     -62423.507      154.98394      190.86542      145.50992    
    194000   4286.6604     -1005.1811     -67376.188      5540.3893     -61835.799      185044.94      12.560077     -61951.893      153.18341      188.17224      147.65879    
    195000   4274.4423      356.64264     -67362.505      5524.5978     -61837.907      185089.92      12.557025     -61796.706      155.31593      186.18391      149.02033    
    196000   4258.4085      3302.0188     -67440.078      5503.8746     -61936.204      184463.76      12.59965      -61556.031      154.92934      186.92749      149.33839    
    197000   4274.5403      1517.536      -67396.661      5524.7245     -61871.937      184677.09      12.585095     -61697.016      154.90488      188.01368      150.56472    
    198000   4279.8688      3667.3461     -67395.885      5531.6114     -61864.274      184783.58      12.577843     -61441.309      153.87104      192.76695      151.70005    
    199000   4285.3456      2794.2669     -67475.523      5538.69       -61936.833      184253.95      12.613997     -61615.486      155.36761      194.33093      151.14989    
    200000   4291.3659     -5004.393      -67363.686      5546.471      -61817.215      185518.83      12.527994     -62396.682      154.64898      196.91621      153.40392    
    201000   4234.3012      502.07004     -67417.594      5472.7165     -61944.878      184851.54      12.573218     -61886.951      154.98091      202.76302      152.84662    
    202000   4306.7334     -2772.4038     -67242.199      5566.3332     -61675.866      185525.7       12.52753      -61996.9        156.15237      204.79199      153.7926     
    203000   4192.3367     -544.95968     -67482.126      5418.4786     -62063.647      184885.34      12.570919     -62126.534      157.35298      206.92663      153.82505    
    204000   4304.1104      986.38958     -67478.775      5562.943      -61915.832      184597.44      12.590525     -61802.184      160.3412       206.57672      153.12888    
    205000   4253.8648     -933.37243     -67413.725      5498.002      -61915.723      184941.89      12.567076     -62023.464      162.32031      208.74141      153.35015    
    206000   4220.9756      1860.4572     -67385.203      5455.4936     -61929.71       184772.33      12.578608     -61715.151      160.99235      212.69153      154.59811    
    207000   4188.3328      750.56953     -67341.578      5413.3036     -61928.274      184832.46      12.574516     -61841.686      162.36911      210.06056      156.00532    
    208000   4256.1632     -1144.4824     -67328.04       5500.9726     -61827.067      185257.08      12.545695     -61959.402      168.84149      204.74589      157.03555    
    209000   4190.8626      331.74484     -67283.715      5416.5733     -61867.142      185128.19      12.554429     -61828.809      165.76946      208.09877      157.5304     
    210000   4209.464      -3126.0013     -67374.923      5440.6152     -61934.308      185389.11      12.53676      -62296.02       167.91284      204.42774      158.76351    
    211000   4221.9955      1559.4244     -67359.436      5456.8118     -61902.624      185002.37      12.562967     -61722.558      167.92366      205.83323      158.93875    
    212000   4255.9713      419.26139     -67386.257      5500.7245     -61885.532      184814.58      12.575733     -61837.169      166.45785      205.91356      160.07829    
    213000   4253.5133      1301.699      -67313.985      5497.5476     -61816.437      184941.25      12.567119     -61666.181      166.77786      209.61603      160.58938    
    214000   4233.9132      1712.2979     -67485.804      5472.2151     -62013.588      184598.75      12.590436     -61816.302      164.01857      207.52274      164.02247    
    215000   4237.5165      1434.8369     -67407.455      5476.8722     -61930.582      184857.32      12.572825     -61765.033      164.49749      209.34663      165.20019    
    216000   4292.392       3603.2954     -67416.371      5547.7972     -61868.574      184431.54      12.601851     -61453.788      165.33621      211.2353       164.95411    
    217000   4213.1343      2327.9979     -67390.535      5445.3589     -61945.176      184670.24      12.585562     -61676.846      166.62907      210.96965      165.831      
    218000   4296.2156     -2746.8691     -67339.446      5552.7392     -61786.707      185605.51      12.522143     -62104.92       168.291        214.44333      167.15022    
    219000   4197.7843     -4818.1181     -67377.915      5425.5195     -61952.396      185556.16      12.525474     -62510.406      170.15368      215.56527      167.3957     
    220000   4244.5495     -4142.7417     -67298.841      5485.9622     -61812.879      185601.77      12.522395     -62292.789      171.20692      219.70505      166.47903    
    221000   4272.2677      1745.9636     -67344.881      5521.7872     -61823.094      185029.75      12.561109     -61621.459      170.3373       217.66613      168.88654    
    222000   4295.7432      694.37187     -67504.768      5552.1286     -61952.64       184577.49      12.591886     -61872.645      170.93777      215.35538      170.73171    
    223000   4268.5748      812.32187     -67367.398      5517.0143     -61850.384      184932.75      12.567697     -61756.621      172.5003       218.31198      171.91061    
    224000   4263.921      -345.93223     -67378.095      5510.9994     -61867.095      184885.3       12.570922     -61907.015      172.45023      218.81658      172.97985    
    225000   4241.0902      4621.4773     -67431.56       5481.4911     -61950.069      184254.5       12.61396      -61418.587      173.79276      221.49149      171.89992    
    226000   4193.5957     -377.1481      -67329.611      5420.1058     -61909.505      184908.1       12.569372     -61953.032      179.22994      221.5984       170.91955    
    227000   4264.6128     -4439.4641     -67326.61       5511.8934     -61814.716      185633.83      12.520233     -62329.088      179.86386      220.85022      173.07415    
    228000   4247.2434     -4603.6597     -67480.849      5489.444      -61991.405      185484.62      12.530305     -62524.373      182.96223      221.45282      172.90908    
    229000   4200.0273      414.99867     -67476.375      5428.4184     -62047.957      184632.26      12.588151     -62000.133      184.30579      220.10155      173.63777    
    230000   4225.7413     -2894.6806     -67436.813      5461.6531     -61975.16       185133.06      12.554099     -62309.643      182.79163      219.36563      176.9923     
    231000   4193.2502      2303.6635     -67477.333      5419.6592     -62057.673      184453.98      12.600318     -61792.459      183.03876      224.17414      176.34792    
    232000   4327.3688      955.32889     -67398.817      5593.0039     -61805.813      184736.99      12.581014     -61695.66       182.5588       229.31794      176.94246    
    233000   4305.8558     -3059.1558     -67413.092      5565.1988     -61847.893      185278.97      12.544212     -62201.66       184.316        235.83564      176.23231    
    234000   4255.3153      2314.6189     -67395.787      5499.8767     -61895.911      184718.52      12.582273     -61629.053      183.00995      232.75219      178.67716    
    235000   4243.5165     -366.21506     -67404.884      5484.6271     -61920.257      184792.66      12.577224     -61962.495      185.2561       230.54191      180.02203    
    236000   4272.6875      4877.3089     -67350.475      5522.3297     -61828.145      184655.73      12.586551     -61266.021      187.11926      226.1251       181.61758    
    237000   4286.2835      1218.2573     -67415.867      5539.9022     -61875.965      184545.26      12.594085     -61735.641      189.41772      228.52131      181.26135    
    238000   4247.4643      1539.3259     -67522.328      5489.7295     -62032.599      184548.68      12.593852     -61855.29       188.70983      229.00876      182.66686    
    239000   4285.7677      135.02043     -67436.215      5539.2356     -61896.98       184937.4       12.567381     -61881.394      195.49719      224.76452      183.50257    
    240000   4225.5444      838.66397     -67390.039      5461.3986     -61928.64       184506.96      12.596699     -61832.06       195.78175      228.52912      182.55384    
    241000   4271.9265      3603.6533     -67443.43       5521.3462     -61922.084      184498.45      12.597281     -61507.106      194.74908      227.97843      184.81036    
    242000   4235.7438      3103.5526     -67461.696      5474.581      -61987.115      184635.03      12.587962     -61629.462      198.08133      223.59107      186.65765    
    243000   4282.6693      2807.9411     -67422.866      5535.231      -61887.635      184493.12      12.597644     -61564.296      202.78724      225.3738       185.65241    
    244000   4270.1593      571.53965     -67516.744      5519.0621     -61997.682      184662.28      12.586104     -61931.808      204.10212      227.8942       186.26757    
    245000   4169.894       2826.1055     -67395.862      5389.4721     -62006.39       184547.01      12.593966     -61680.865      201.0376       225.36356      189.24439    
    246000   4271.7705     -2842.911      -67386.903      5521.1446     -61865.759      185319.47      12.541471     -62194.59       201.15814      227.1629       190.63522    
    247000   4243.0512     -1478.1941     -67282.038      5484.0257     -61798.012      185219.24      12.548257     -61968.899      202.96156      227.27416      191.4468     
    248000   4238.5399      2493.8718     -67486.068      5478.195      -62007.873      184621.04      12.588916     -61720.5        209.17084      226.91213      190.59634    
    249000   4258.6838     -362.49123     -67344.711      5504.2304     -61840.48       185154.7       12.552631     -61882.372      209.95029      228.92404      191.9116     
    250000   4241.0394     -6258.0569     -67468.739      5481.4254     -61987.314      185429.43      12.534034     -62711.596      210.88168      228.6508       192.91711    
    251000   4208.8316      861.54108     -67412.297      5439.7978     -61972.499      184885.95      12.570878     -61873.08       207.23551      230.10478      194.15509    
    252000   4216.1881     -1961.6736     -67404.235      5449.3059     -61954.93       185129.5       12.55434      -62181.598      207.35193      229.37358      196.6913     
    253000   4231.2421     -2095.031      -67456.188      5468.7628     -61987.425      185250.3       12.546154     -62229.661      213.82934      230.13818      195.59114    
    254000   4201.4221     -3707.6876     -67412.272      5430.2213     -61982.051      185206.65      12.549111     -62410.648      211.90517      230.13645      197.93939    
    255000   4145.8038     -2638.302      -67342.373      5358.3361     -61984.037      185156.17      12.552532     -62288.934      216.89952      231.1241       197.63074    
    256000   4298.481      -1711.7193     -67502.701      5555.6671     -61947.034      184895.78      12.57021      -62144.571      220.44506      229.42415      198.25507    
    257000   4199.7462     -1334.1857     -67463.39       5428.0552     -62035.335      184964.63      12.565531     -62189.361      217.48025      233.70673      198.54444    
    258000   4251.2807      955.86766     -67451.494      5494.662      -61956.832      184916.52      12.5688       -61846.509      221.64774      232.34649      199.29262    
    259000   4299.997       400.24649     -67391.831      5557.6266     -61834.205      185062.57      12.558881     -61787.973      223.96235      231.24966      200.25711    
    260000   4191.4394     -4746.3132     -67366.519      5417.3189     -61949.2        185497.88      12.529409     -62498.722      222.48408      232.70123      202.32125    
    261000   4288.0145     -934.07559     -67393.802      5542.1395     -61851.663      185109.65      12.555687     -61959.582      221.51392      229.99536      204.43453    
    262000   4281.0878      101.62714     -67478.094      5533.1869     -61944.907      184685.85      12.584498     -61933.192      221.3685       228.43367      205.84821    
    263000   4317.4795      4532.2487     -67466.161      5580.2222     -61885.939      184490.39      12.597831     -61364.051      216.60865      228.25528      210.00814    
    264000   4299.0565      2206.5775     -67389.477      5556.4109     -61833.066      184666.84      12.585794     -61578.736      219.80443      227.24513      211.61448    
    265000   4294.4222      6040.7653     -67439.425      5550.4213     -61889.004      184372.28      12.605901     -61193.856      224.03355      225.15261      211.75859    
    266000   4240.186       328.27762     -67358.141      5480.3225     -61877.819      184996         12.5634       -61839.914      224.41478      228.2438       212.80321    
    267000   4219.9696      2161.2683     -67357.283      5454.1933     -61903.09       184779.12      12.578146     -61653.831      221.73628      227.31004      216.50217    
    268000   4239.7768      1385.035      -67429.267      5479.7936     -61949.474      184758.46      12.579552     -61789.755      220.33653      227.55748      219.48573    
    269000   4240.1715     -950.80778     -67430.092      5480.3037     -61949.789      184926.14      12.568146     -62059.533      216.86657      231.12935      221.97687    
    270000   4237.1447      303.0861      -67384.749      5476.3917     -61908.358      185002.4       12.562966     -61873.361      213.43959      237.19853      222.24803    
    271000   4241.3161     -2184.2832     -67378.911      5481.7831     -61897.127      185254.93      12.54584      -62149.69       216.25573      240.4939       220.95798    
    272000   4283.6036      2413.7872     -67309.853      5536.4386     -61773.414      184901.56      12.569817     -61494.847      217.77772      239.94354      222.22966    
    273000   4230.7359      3884.3358     -67286.32       5468.1086     -61818.212      184825.14      12.575014     -61370.12       216.16707      246.19346      222.24435    
    274000   4301.4241      1571.247      -67447.054      5559.471      -61887.583      184709.28      12.582902     -61706.44       223.5417       242.28894      222.85716    
    275000   4302.0051      1341.7916     -67259.39       5560.2219     -61699.168      185185.51      12.550543     -61544.079      230.62076      242.56563      221.51507    
    276000   4250.298      -87.105951     -67304.798      5493.392      -61811.406      185336.12      12.540344     -61821.482      232.26601      243.25385      222.65878    
    277000   4247.7273      863.56337     -67379.008      5490.0694     -61888.939      184564.34      12.592784     -61789.46       230.63101      242.09301      224.83594    
    278000   4228.8011      696.18782     -67429.595      5465.6078     -61963.987      184533.05      12.594919     -61883.803      232.40595      245.4764       224.18293    
    279000   4251.9073      760.17156     -67425.919      5495.472      -61930.448      184811.48      12.575944     -61842.762      231.85765      247.48775      225.13901    
    280000   4271.5694      667.20054     -67447.874      5520.8846     -61926.989      184805.88      12.576325     -61850.03       230.02076      250.75266      226.97213    
    281000   4299.4527     -1014.6261     -67360.496      5556.9231     -61803.573      185052.92      12.559536     -61920.763      233.19233      251.73264      227.70431    
    282000   4268.3296     -1479.8403     -67310.934      5516.6973     -61794.236      185022.41      12.561607     -61965.131      231.30959      253.06361      230.12732    
    283000   4268.5692      3012.8652     -67350.698      5517.0069     -61833.691      184756.63      12.579677     -61486.259      233.32773      248.86003      232.67552    
    284000   4229.4391      3711.0856     -67515.23       5466.4324     -62048.798      184347.32      12.607608     -61621.798      237.30037      246.83403      233.16646    
    285000   4275.7205      1273.8351     -67593.98       5526.2498     -62067.73       184111.65      12.623746     -61921.349      239.19722      247.90436      232.19309    
    286000   4211.8094      3203.9681     -67408.862      5443.6465     -61965.215      184416.46      12.602881     -61596.427      240.43236      248.27423      234.4563     
    287000   4296.1143      5364.4834     -67355.042      5552.6082     -61802.434      184464.27      12.599614     -61184.802      246.98855      246.84982      233.64369    
    288000   4231.9235      491.57699     -67314.167      5469.6435     -61844.524      184899.72      12.569942     -61787.793      244.18287      246.43982      238.09622    
    289000   4211.2394      1590.5311     -67373.277      5442.9098     -61930.367      184591.58      12.590925     -61747.117      242.94278      246.79372      239.63363    
    290000   4233.9398     -200.05477     -67404.106      5472.2495     -61931.856      184991.33      12.563717     -61954.955      241.96839      250.33919      240.45793    
    291000   4254.5517     -2438.4713     -67375.621      5498.8898     -61876.731      185206.88      12.549095     -62158.611      240.785        250.08023      243.53503    
    292000   4213.6093      2494.6453     -67432.707      5445.9729     -61986.734      184496.63      12.597405     -61699.466      237.66735      251.2771       244.89527    
    293000   4276.2534      1084.1576     -67344.486      5526.9385     -61817.548      184900.4       12.569896     -61692.43       241.3662       249.571        245.65999    
    294000   4256.7936      853.98497     -67441.551      5501.7873     -61939.764      184775.67      12.578381     -61841.276      244.89184      251.04536      243.65891    
    295000   4216.8324     -1792.6694     -67562.033      5450.1386     -62111.895      184870.07      12.571958     -62318.745      247.68252      248.08716      245.17627    
    296000   4240.933      -564.54107     -67416.838      5481.2879     -61935.55       184910.46      12.569212     -62000.705      251.58892      247.78752      245.42921    
    297000   4254.2481     -2430.6992     -67417.179      5498.4974     -61918.681      185315.86      12.541715     -62199.828      249.49793      252.38991      245.56357    
    298000   4286.7624     -437.24219     -67490.21       5540.5212     -61949.689      184897.03      12.570125     -62000.148      249.72804      253.07433      246.37307    
    299000   4203.7781      815.13573     -67283.72       5433.2663     -61850.453      185188.06      12.55037      -61756.235      250.64233      250.09829      249.59374    
    300000   4268.7144     -182.15401     -67436.359      5517.1946     -61919.164      184574.66      12.592079     -61940.149      245.02875      251.8467       252.17872    
    301000   4282.1348     -2715.1746     -67357.679      5534.5401     -61823.139      185254.83      12.545847     -62137.086      243.43546      256.05857      254.58928    
    302000   4276.2773      616.80033     -67358.39       5526.9695     -61831.42       185136.2       12.553886     -61760.147      244.64597      258.6547       254.15866    
    303000   4270.5701      2592.4374     -67411.978      5519.5931     -61892.385      184698.8       12.583616     -61593.529      249.96805      254.52471      254.42355    
    304000   4277.315       2067.9904     -67396.17       5528.3107     -61867.859      184820.15      12.575354     -61629.304      249.57607      255.76787      256.07324    
    305000   4280.2583      1122.1073     -67362.952      5532.1149     -61830.837      184947.02      12.566727     -61701.307      253.51159      253.10519      258.13733    
    306000   4226.2361     -205.12079     -67467.651      5462.2926     -62005.358      184641.92      12.587492     -62028.997      255.44856      250.6081       260.72874    
    307000   4233.2556     -5180.4576     -67379.721      5471.3652     -61908.356      185694.94      12.516112     -62508.78       268.14747      247.421        260.86345    
    308000   4270.5334     -1046.9168     -67297.314      5519.5457     -61777.768      185155.92      12.552549     -61898.755      270.25984      244.82753      262.85108    
    309000   4241.897      -1098.6663     -67447.155      5482.5339     -61964.621      184767.9       12.57891      -62091.322      268.57185      244.98485      264.13815    
    310000   4193.4966     -786.73258     -67371.497      5419.9777     -61951.519      184732.81      12.581299     -62042.23       275.96535      251.8177       257.39276    
    311000   4293.6975     -1393.355      -67337.031      5549.4847     -61787.546      185285.13      12.543795     -61948.682      272.54268      258.07906      257.93726    
    312000   4179.3492      2561.5782     -67366.089      5401.6926     -61964.396      184663.11      12.586048     -61669.155      278.69852      259.46745      254.87312    
    313000   4190.3493      43.907603     -67431.294      5415.9099     -62015.384      184570.18      12.592385     -62010.326      276.57541      260.69648      257.23799    
    314000   4172.0814     -1678.0904     -67349.828      5392.2992     -61957.529      185212.13      12.54874      -62151.516      284.1451       260.46901      258.19521    
    315000   4193.0876     -480.65361     -67398.716      5419.4492     -61979.266      185209.8       12.548898     -62034.829      283.94267      261.71732      259.47436    
    316000   4235.9834     -5514.1566     -67447.872      5474.8908     -61972.981      185263.54      12.545257     -62610.597      281.85309      267.60977      258.74983    
    317000   4188.3232     -2899.6085     -67429.037      5413.2913     -62015.746      185114.95      12.555327     -62350.766      280.14368      267.38462      261.36183    
    318000   4279.5005     -4296.4919     -67438.042      5531.1354     -61906.906      185293.76      12.543211     -62403.801      279.35808      270.4521       262.12809    
    319000   4178.6612      1599.5506     -67445.871      5400.8034     -62045.067      184723.75      12.581916     -61860.646      280.59627      271.67629      261.6558     
    320000   4287.1969      1611.7899     -67454.128      5541.0828     -61913.046      184705.09      12.583187     -61727.232      283.86942      271.70527      261.83754    
    321000   4265.8326     -1000.7032     -67327.784      5513.4701     -61814.314      185071.24      12.558292     -61929.908      279.99925      276.38539      263.40125    
    322000   4258.4843      4033.8218     -67373.166      5503.9725     -61869.193      184620.56      12.588948     -61404.371      277.60561      275.68915      266.11761    
    323000   4231.4879      4304.5361     -67434.135      5469.0805     -61965.055      184482.31      12.598383     -61469.41       280.02659      269.8584       269.43606    
    324000   4173.647      -1028.3398     -67458.191      5394.3227     -62063.868      184883.76      12.571027     -62182.534      282.73546      269.34334      271.66291    
    325000   4226.8289      701.95269     -67405.673      5463.0589     -61942.615      184857.63      12.572804     -61861.624      283.72464      273.73874      269.18202    
    326000   4277.4157     -1191.4495     -67448.658      5528.4408     -61920.217      184829.73      12.574702     -62057.665      285.02869      274.4852       269.29008    
    327000   4205.1927      4190.4308     -67416.371      5435.0946     -61981.277      184556.19      12.59334      -61498.577      286.53285      275.6561       268.92931    
    328000   4215.5312      1850.9568     -67367.221      5448.4568     -61918.764      184530.86      12.595068     -61705.58       286.87173      280.10272      267.40644    
    329000   4263.1488     -4690.0561     -67461.603      5510.0012     -61951.601      185187.45      12.550411     -62493.701      290.18139      281.86528      268.36495    
    330000   4258.7733     -526.34257     -67443.166      5504.3461     -61938.82       184841.38      12.573909     -61999.543      287.74701      278.54882      273.2987     
    331000   4218.4344     -1163.9376     -67419.163      5452.2091     -61966.954      184917.85      12.568709     -62101.292      287.51811      276.79552      277.06989    
    332000   4226.3308     -1633.1754     -67337.584      5462.415      -61875.169      185349.5       12.539439     -62064.105      288.50246      277.88561      278.45282    
    333000   4227.307       4061.2013     -67380.438      5463.6768     -61916.761      184517.05      12.596011     -61449.046      293.47963      273.51864      279.39983    
    334000   4239.3423     -4880.9472     -67333.132      5479.232      -61853.9        185414.76      12.535025     -62418.757      287.48065      281.97192      281.47564    
    335000   4236.1379      1823.5761     -67398.327      5475.0904     -61923.236      184788.56      12.577504     -61712.912      288.6578       284.54747      280.25096    
    336000   4283.9252      659.03747     -67413.447      5536.8541     -61876.593      184938.6       12.567299     -61800.52       291.28686      288.57347      279.17667    
    337000   4283.5807     -2233.0222     -67418.667      5536.4089     -61882.259      185292.38      12.543305     -62140.508      289.64895      286.52711      283.79009    
    338000   4246.337      -340.51722     -67460.491      5488.2725     -61972.218      185130.37      12.554281     -62011.565      287.51006      287.90652      285.69755    
    339000   4252.2945     -388.29716     -67542.336      5495.9724     -62046.364      184414.48      12.603016     -62091.058      292.84747      285.78944      284.65837    
    340000   4206.0141     -520.85716     -67427.189      5436.1562     -61991.033      184899.53      12.569955     -62051.142      297.77843      286.8761       284.16411    
    341000   4249.5091      1583.0756     -67353.439      5492.3724     -61861.067      184826.23      12.57494      -61678.444      300.77204      284.60313      286.98157    
    342000   4282.1475     -594.13958     -67384.029      5534.5566     -61849.473      185071.83      12.558253     -61918.103      299.84941      281.58292      293.09261    
    343000   4257.0316     -2299.8578     -67335.787      5502.095      -61833.692      185296.02      12.543058     -62099.676      294.3853       287.03856      293.39022    
    344000   4318.6985     -3410.4544     -67582.007      5581.7978     -62000.209      185069.67      12.558399     -62394.155      300.45345      285.68404      292.47819    
    345000   4245.7974     -1160.8194     -67434.302      5487.575      -61946.727      184773.38      12.578537     -62080.601      302.43131      281.84193      295.58526    
    346000   4264.2341     -5310.1387     -67311.823      5511.4039     -61800.42       185379.94      12.53738      -62414.829      298.71168      283.41053      300.59764    
    347000   4245.5266      1458.1357     -67352.213      5487.225      -61864.988      184716.97      12.582378     -61696.878      302.51772      285.11601      297.79153    
    348000   4268.6417      1089.6013     -67330.63       5517.1007     -61813.53       185123.01      12.55478      -61687.632      301.59716      293.91179      293.91904    
    349000   4240.6708     -200.43932     -67409.519      5480.9491     -61928.57       185012.96      12.562248     -61951.716      300.83434      297.69915      293.19896    
    350000   4183.6644      162.35969     -67312.438      5407.2699     -61905.168      185115.22      12.555308     -61886.409      308.00254      297.28346      291.40104    
    351000   4239.104      -2404.3053     -67433.126      5478.924      -61954.202      185007.13      12.562644     -62231.833      306.03334      296.76399      294.85641    
    352000   4267.0081     -2788.789      -67361.235      5514.9894     -61846.246      185283.47      12.543908     -62168.755      305.97032      304.81918      291.65975    
    353000   4255.3188     -2116.8014     -67397.755      5499.8813     -61897.874      185084.66      12.557382     -62142.409      304.75435      302.12737      295.27077    
    354000   4210.7038      2691.5935     -67411.777      5442.2176     -61969.559      184570.82      12.592341     -61659.488      301.55499      300.97341      298.35567    
    355000   4246.9664     -1442.0201     -67473.629      5489.086      -61984.543      184905.09      12.569577     -62150.965      302.52657      302.58928      298.96817    
    356000   4296.9699     -2216.9489     -67412.131      5553.7141     -61858.416      184942.56      12.56703      -62114.323      305.26823      304.92705      297.32169    
    357000   4288.6844      596.01287     -67401.928      5543.0053     -61858.923      184986.69      12.564032     -61790.107      299.4635       309.819        299.40553    
    358000   4281.144       728.93978     -67266.012      5533.2595     -61732.753      185156.46      12.552512     -61648.512      297.67732      309.90026      303.27237    
    359000   4260.2256     -6110.4095     -67513.733      5506.2232     -62007.51       185282.44      12.543977     -62714.144      295.48551      308.83516      307.52508    
    360000   4245.7017     -892.39196     -67352.558      5487.4514     -61865.106      185421.5       12.53457      -61968.384      293.84449      309.16176      310.89384    
    361000   4283.4495      2684.5045     -67457.549      5536.2394     -61921.31       184659.16      12.586317     -61611.906      291.20284      308.76181      312.91195    
    362000   4290.9567     -1715.7245     -67414.557      5545.9422     -61868.615      185219.74      12.548224     -62066.961      297.82281      305.26896      314.7882     
    363000   4271.0909      1330.6704     -67449.988      5520.2661     -61929.722      184639.8       12.587637     -61776.372      295.72061      305.62319      317.50276    
    364000   4260.0339      3138.846      -67308.079      5505.9754     -61802.104      184748.62      12.580222     -61440.16       293.18596      308.31456      321.081      
    365000   4268.0755      3679.5818     -67295.206      5516.3689     -61778.837      184810.18      12.576032     -61354.4        295.02039      308.15022      321.15745    
    366000   4253.1832      295.60742     -67339.674      5497.121      -61842.553      185134.81      12.55398      -61808.395      297.52114      307.11061      322.71498    
    367000   4219.0192      113.74824     -67437.715      5452.965      -61984.75       184853.15      12.573109     -61971.626      298.91619      306.45792      323.00308    
    368000   4229.6157     -3422.1188     -67437.249      5466.6607     -61970.588      185231.14      12.547452     -62366.227      296.86171      306.27865      328.20895    
    369000   4276.2679     -679.34809     -67251.099      5526.9573     -61724.141      185479.64      12.530641     -61802.788      294.84197      306.44768      333.49752    
    370000   4277.4325      1253.5042     -67367.352      5528.4626     -61838.889      184963.56      12.565603     -61694.178      291.94088      307.91565      334.99309    
    371000   4296.9695      1640.5379     -67461.72       5553.7136     -61908.006      184570.49      12.592364     -61719.016      290.36336      307.33126      339.74264    
    372000   4201.8582      5824.2599     -67243.445      5430.7848     -61812.661      184668.34      12.585692     -61141.351      286.6675       306.81826      348.40957    
    373000   4298.9968     -2245.2125     -67416.696      5556.3338     -61860.362      185204.46      12.549259     -62119.899      287.70671      308.29829      350.13897    
    374000   4210.9375      166.2096      -67510.229      5442.5196     -62067.71       184520.53      12.595773     -62048.567      291.05879      312.87568      342.08174    
    375000   4243.3603     -153.60748     -67419.087      5484.4252     -61934.662      184943.77      12.566948     -61952.393      290.15146      321.24374      339.70287    
    376000   4281.0979     -2876.0239     -67358.542      5533.1999     -61825.342      185347.87      12.539549     -62158.055      296.04421      320.19386      337.50395    
    377000   4219.2709     -1761.2524     -67404.438      5453.2903     -61951.147      184873.79      12.571705     -62154.377      293.50875      322.36472      339.16645    
    378000   4180.8686      1685.2069     -67362.517      5403.6564     -61958.861      184968.93      12.565239     -61764.306      290.39458      321.72253      347.96207    
    379000   4261.804       2368.8893     -67342.917      5508.2632     -61834.654      184739.88      12.580818     -61561.508      290.23285      318.33437      354.13512    
    380000   4201.7706      4056.3023     -67503.723      5430.6717     -62073.051      184253.02      12.61406      -61606.569      291.11565      317.40753      354.75829    
    381000   4232.2457      630.54011     -67315.417      5470.0599     -61845.357      185077.36      12.557877     -61772.519      297.11857      313.88112      355.22582    
    382000   4278.4519      811.10933     -67313.19       5529.7801     -61783.41       185153.36      12.552723     -61689.675      302.60681      310.16737      356.11247    
    383000   4194.1126      1055.0776     -67430.099      5420.7739     -62009.325      184562.66      12.592898     -61887.786      305.12791      313.13207      350.42343    
    384000   4232.9453     -1078.1329     -67290.578      5470.9641     -61819.614      185142.24      12.553477     -61944.199      308.54982      312.64888      352.90105    
    385000   4217.6886      1708.1749     -67410.424      5451.2452     -61959.179      184876.86      12.571496     -61762.071      306.98975      312.89811      355.81233    
    386000   4254.4023      2940.2328     -67457.297      5498.6967     -61958.6        184657.75      12.586413     -61619.725      302.14514      313.13836      364.09125    
    387000   4199.0422      177.62721     -67512.504      5427.1453     -62085.358      184526.03      12.595398     -62064.901      303.92406      309.88866      368.44793    
    388000   4237.7866      616.2769      -67629.504      5477.2213     -62152.282      184021.03      12.629962     -62081.499      306.54062      308.49769      365.60143    
    389000   4303.1957      4820.9206     -67406.112      5561.7608     -61844.352      184527.49      12.595298     -61289.112      306.24633      306.31676      372.61935    
    390000   4254.5338     -598.11818     -67371.136      5498.8666     -61872.269      185135.92      12.553905     -61941.383      312.63807      308.59047      368.57279    
    391000   4267.5377      582.93462     -67496.317      5515.6738     -61980.643      184375.23      12.6057       -61913.56       315.91954      305.41895      367.82771    
    392000   4249.6875      1036.4172     -67352.385      5492.603      -61859.782      184848.74      12.573409     -61740.207      320.71563      305.75176      366.30607    
    393000   4211.0308      233.70611     -67463.768      5442.6401     -62021.128      184618.85      12.589065     -61994.198      316.99993      306.78892      372.26595    
    394000   4248.9144      3459.5789     -67358.69       5491.6037     -61867.087      184807.65      12.576204     -61468.032      313.25949      308.62066      377.70114    
    395000   4252.6277     -425.83988     -67354.221      5496.403      -61857.818      184897.98      12.57006      -61906.961      317.8824       310.11265      373.74583    
    396000   4228.4762     -3886.5066     -67471.509      5465.188      -62006.321      185334.26      12.54047      -62455.898      313.97008      313.44172      380.05607    
    397000   4222.6219     -566.20215     -67343.046      5457.6214     -61885.424      185077.45      12.557871     -61950.83       313.00842      318.47236      377.76304    
    398000   4174.8956      3061.4391     -67396.313      5395.9364     -62000.377      184452.3       12.600432     -61647.925      316.43293      323.0659       368.55318    
    399000   4248.5461     -1824.6185     -67283.31       5491.1277     -61792.182      185663.29      12.518246     -62003.623      318.16423      325.04913      372.60999    
    400000   4271.6357      711.78814     -67380.107      5520.9704     -61859.137      184940.17      12.567193     -61776.974      320.73993      321.42427      373.7396     
    401000   4273.3996      818.46127     -67416.444      5523.2501     -61893.194      184646.97      12.587148     -61798.869      318.99909      328.33199      369.33339    
    402000   4301.7124      8080.2611     -67351.048      5559.8436     -61791.204      184331.74      12.608674     -60861.563      317.44443      333.17018      368.73582    
    403000   4219.1689      1156.7238     -67347.543      5453.1584     -61894.385      184803.26      12.576503     -61760.962      320.36358      333.89772      369.2582     
    404000   4257.7945      4000.734      -67405.431      5503.081      -61902.35       184714.99      12.582513     -61441.105      321.38241      327.70592      378.09728    
    405000   4291.5183     -417.18045     -67222.347      5546.668      -61675.679      185311.54      12.542008     -61723.931      320.4624       331.50216      379.8858     
    406000   4249.4199     -1082.016      -67344.132      5492.257      -61851.875      184994.14      12.563526     -61976.809      315.95619      332.69824      386.74836    
    407000   4260.6662      3397.1927     -67562.247      5506.7926     -62055.454      184290.14      12.61152      -61664.692      315.32028      327.03336      393.2631     
    408000   4263.7269     -4770.5867     -67378.75       5510.7484     -61868.001      185199.26      12.549611     -62419.445      320.44075      324.67102      396.2101     
    409000   4195.4566     -721.36775     -67370.084      5422.5109     -61947.573      185046.63      12.559963     -62030.889      324.70271      326.86273      390.29772    
    410000   4238.596      -1174.2454     -67464.976      5478.2674     -61986.708      184882.54      12.57111      -62122.21       320.30534      335.00707      386.60973    
    411000   4227.4126     -1230.2254     -67368.638      5463.8132     -61904.825      184797.41      12.576901     -62046.721      322.92718      338.87524      380.74419    
    412000   4212.3266      3019.9232     -67446.802      5444.315      -62002.487      184496.92      12.597385     -61654.731      319.65679      345.89896      381.54523    
    413000   4308.5524     -1484.6634     -67396.859      5568.6842     -61828.175      185152.51      12.55278      -61999.747      326.39524      343.88769      381.04297    
    414000   4253.2846      4280.7871     -67352.42       5497.2521     -61855.168      184787.56      12.577572     -61361.442      326.80773      346.61317      379.20012    
    415000   4280.1242      1314.2038     -67385.249      5531.9415     -61853.308      184826.51      12.574921     -61701.701      333.22398      342.61871      377.77738    
    416000   4257.6403      2479.5948     -67418.601      5502.8816     -61915.719      184704.27      12.583243     -61629.863      331.84013      341.48108      384.06535    
    417000   4209.8799      1610.6834     -67441.588      5441.1528     -62000.435      184519.01      12.595877     -61814.936      335.91516      343.06654      379.63665    
    418000   4280.6321     -3355.5845     -67387.86       5532.598      -61855.262      185344.54      12.539775     -62243.446      339.85132      339.85344      384.59521    
    419000   4326.2496     -110.64761     -67351.861      5591.5574     -61760.304      185059.92      12.559061     -61773.084      338.3944       338.0104       389.28936    
    420000   4243.6808      1463.7115     -67343.957      5484.8394     -61859.117      184662.49      12.58609      -61690.414      337.0286       340.50127      388.98147    
    421000   4171.7987      843.00863     -67493.548      5391.9338     -62101.615      184453.81      12.60033      -62004.561      341.99914      342.72228      383.72612    
    422000   4243.7655      1359.2508     -67396.527      5484.9488     -61911.578      185012.25      12.562297     -61754.618      341.59195      345.80931      386.62984    
[...]
    899000   4241.6384      1510.2057     -67438.415      5482.1996     -61956.216      184631.46      12.588206     -61782.183      786.15083      869.94141      637.0395     
    900000   4201.1882      415.94705     -67335.043      5429.9189     -61905.124      185048.22      12.559854     -61857.083      778.30045      894.51687      633.6942     
    901000   4238.7623      504.61686     -67516.135      5478.4823     -62037.653      184413.28      12.603098     -61979.57       774.84824      885.39984      640.37706    
    902000   4305.8688     -6007.5054     -67394.832      5565.2157     -61829.616      185495.48      12.529571     -62525.148      778.19564      896.65638      640.82118    
    903000   4196.2755     -3362.3939     -67355.945      5423.5693     -61932.375      185171.35      12.551503     -62320.984      780.28593      889.13529      644.44724    
    904000   4254.956      -397.68265     -67522.734      5499.4123     -62023.322      184857.09      12.572841     -62069.206      780.06941      888.42182      644.67329    
    905000   4228.0508     -4173.7744     -67427.474      5464.6381     -61962.836      185359.63      12.538753     -62445.71       789.23985      888.32486      642.52749    
    906000   4229.3147      655.06297     -67376.5        5466.2717     -61910.229      184918.91      12.568638     -61834.623      786.9923       874.81988      651.56965    
    907000   4184.185      -1006.0727     -67468.94       5407.9428     -62060.997      184832.65      12.574503     -62177.061      785.63233      887.02551      647.90465    
    908000   4307.5592     -331.60041     -67268.996      5567.4004     -61701.596      185189.67      12.550261     -61739.924      789.09792      880.9499       653.29426    
    909000   4232.082      -2522.5933     -67236.933      5469.8483     -61767.085      185813.35      12.508136     -62059.644      793.15677      881.83698      656.49309    
    910000   4226.5675     -4106.3598     -67502.136      5462.721      -62039.415      185159.2       12.552327     -62513.976      789.24785      892.67596      650.75066    
    911000   4245.4697     -3533.2302     -67433.72       5487.1515     -61946.568      185363.24      12.53851      -62355.344      788.68954      903.44584      649.12662    
    912000   4230.3831     -3004.3318     -67451.089      5467.6526     -61983.436      184999.1       12.563189     -62330.338      794.44496      894.52957      650.40957    
    913000   4304.0015     -232.03898     -67409.238      5562.8023     -61846.435      185205.2       12.549209     -61873.258      811.67187      889.89732      645.68054    
    914000   4205.3928      2595.6943     -67429.668      5435.3532     -61994.315      184424.26      12.602349     -61695.528      802.41372      898.05693      645.22167    
    915000   4274.6309     -271.17709     -67374.158      5524.8416     -61849.317      184943.2       12.566987     -61880.619      801.48056      887.35127      657.13112    
    916000   4302.9993      1745.8355     -67379.176      5561.507      -61817.669      184748.16      12.580254     -61616.355      812.49785      882.83187      653.1738     
    917000   4238.2557      109.06169     -67405.717      5477.8277     -61927.889      184945.88      12.566805     -61915.3        804.50467      872.81422      668.47966    
    918000   4195.6122      1589.8219     -67409.658      5422.7121     -61986.946      184770.78      12.578714     -61803.6        799.28351      884.33389      665.45736    
    919000   4251.6542     -3650.4557     -67421.086      5495.1448     -61925.941      184888.46      12.570707     -62347.198      802.56621      902.07502      656.87077    
    920000   4240.9553     -223.53908     -67390.612      5481.3168     -61909.295      185021.54      12.561666     -61935.11       811.62598      894.37723      657.13324    
    921000   4275.1416      2822.2816     -67450.186      5525.5017     -61924.685      184342.57      12.607933     -61599.96       805.09647      888.40795      662.66719    
    922000   4225.0338      4946.4585     -67353.373      5460.7387     -61892.634      184613.49      12.589431     -61322.67       800.66154      896.98492      664.38708    
    923000   4268.056       1172.8376     -67381.425      5516.3437     -61865.081      185001.2       12.563047     -61729.655      798.75343      901.18024      666.96009    
    924000   4278.4051     -2346.1717     -67429.239      5529.7196     -61899.52       185093.57      12.556777     -62170.564      801.18948      894.45657      670.83775    
    925000   4272.4653      27.212183     -67419.647      5522.0426     -61897.605      184826.84      12.574899     -61894.466      803.11692      895.67141      667.67549    
    926000   4256.9859      2198.0075     -67488.608      5502.0359     -61986.572      184526.44      12.59537      -61733.422      808.18101      899.74755      661.57935    
    927000   4210.7838      132.66638     -67347.052      5442.3209     -61904.731      184954.55      12.566215     -61889.416      802.63742      904.8189       665.44877    
    928000   4264.7133      4828.4513     -67443.879      5512.0234     -61931.856      184292.7       12.611345     -61376.456      806.73187      913.23847      656.49881    
    929000   4243.7458      1776.7732     -67445.916      5484.9235     -61960.992      184671.04      12.585507     -61756.197      807.14788      925.82631      653.19072    
    930000   4282.7186     -1962.3403     -67361.943      5535.2948     -61826.648      185108.58      12.555759     -62053.369      813.05454      926.1773       651.95066    
    931000   4200.1975      1487.7388     -67436.675      5428.6385     -62008.036      184878.78      12.571366     -61836.362      799.0266       958.67254      647.11746    
    932000   4217.322      -436.38763     -67341.988      5450.7714     -61891.216      185119.03      12.55505      -61941.637      802.86302      957.81205      647.74733    
    933000   4306.3927     -388.52989     -67327.009      5565.8928     -61761.116      185075.73      12.557988     -61805.997      800.93836      972.64031      644.19028    
    934000   4216.0546     -2841.7474     -67488.305      5449.1334     -62039.172      184890.96      12.570537     -62367.109      787.19276      988.31601      649.65471    
    935000   4180.5137     -2667.9637     -67484.317      5403.1977     -62081.119      184950.36      12.5665       -62389.101      782.71263      996.65952      651.97055    
    936000   4312.157       400.10561     -67408.432      5573.343      -61835.089      184783.71      12.577834     -61788.944      788.87212      982.35124      654.44613    
    937000   4255.79       -496.75017     -67384.607      5500.4902     -61884.117      185064.6       12.558743     -61941.496      784.26793      988.09599      659.35183    
    938000   4310.2908     -3136.0404     -67390.994      5570.931      -61820.063      185268.4       12.544928     -62182.7        786.62606      998.3963       656.50567    
    939000   4258.8888      1315.8083     -67454.449      5504.4953     -61949.953      184882.03      12.571144     -61798.116      787.22339      1013.1111      647.3222     
    940000   4286.935      -510.60052     -67319.661      5540.7442     -61778.917      185188.29      12.550355     -61837.935      781.22528      1006.9659      658.04328    
    941000   4217.1326      1939.4653     -67357.88       5450.5266     -61907.353      184917.39      12.568741     -61683.507      782.80444      994.5406       663.47086    
    942000   4264.9209     -126.91004     -67372.84       5512.2917     -61860.548      185116.13      12.555247     -61875.212      784.13124      1006.3729      660.16126    
    943000   4270.3792     -86.568298     -67332.198      5519.3464     -61812.852      185283.95      12.543875     -61822.863      774.6853       997.92026      676.45542    
    944000   4212.5609      2388.6814     -67410.681      5444.6178     -61966.064      184662.51      12.586089     -61690.751      783.30345      995.1058       667.71304    
    945000   4271.9481      1033.9872     -67370.677      5521.3741     -61849.303      184748.82      12.580209     -61730.073      778.06086      996.61027      674.26237    
    946000   4253.446       147.29988     -67427.859      5497.4607     -61930.398      184895.35      12.570239     -61913.399      769.65123      1007.4646      681.36398    
    947000   4263.04       -589.16918     -67284.196      5509.8607     -61774.335      185149.04      12.553016     -61842.42       769.0058       1010.735       684.07955    
    948000   4255.8565      1274.7253     -67469.54       5500.5761     -61968.964      184563.76      12.592823     -61822.121      773.20596      981.03463      694.29833    
    949000   4219.9412     -2770.8775     -67234.355      5454.1567     -61780.199      185500.3       12.529245     -62101.011      779.27908      982.02004      695.41376    
    950000   4269.7776     -865.04553     -67458.283      5518.5688     -61939.715      184953.41      12.566293     -62039.574      774.05958      994.2559       693.61193    
    951000   4241.6407      460.76992     -67446.692      5482.2027     -61964.489      184813.36      12.575815     -61911.339      764.9603       1010.1592      697.19119    
    952000   4210.5201     -1788.2978     -67459.968      5441.9801     -62017.988      184955.9       12.566124     -62224.43       756.04756      1037.3438      698.02602    
    953000   4185.1238      3446.2399     -67361.977      5409.1561     -61952.821      184921.26      12.568477     -61555.06       757.74682      1023.1317      703.8983     
    954000   4365.3559      982.01828     -67347.395      5642.1011     -61705.294      184964.39      12.565547     -61591.924      756.75031      1019.7832      708.38524    
    955000   4259.8577      654.72545     -67408.795      5505.7476     -61903.047      184715.84      12.582455     -61827.564      756.09121      1022.8389      707.93938    
    956000   4308.1091     -2374.5132     -67354.471      5568.1113     -61786.359      185217.25      12.548392     -62060.861      758.07567      1032.0319      704.79805    
    957000   4224.0716     -2938.154      -67347.198      5459.495      -61887.703      185403.27      12.535803     -62227.705      749.18237      1030.66        722.41754    
    958000   4285.9203     -2801.4065     -67316.465      5539.4328     -61777.032      185516.68      12.528139     -62101.408      756.32797      1028.4387      717.57822    
    959000   4279.9984     -414.24927     -67451.614      5531.7789     -61919.835      184836.83      12.574219     -61967.625      749.8612       1025.1907      727.31903    
    960000   4183.5278     -662.11546     -67474.003      5407.0934     -62066.91       184730.45      12.58146      -62143.251      758.09671      1014.9571      721.27807    
    961000   4248.2664      310.05149     -67469.814      5490.7662     -61979.047      184607.96      12.589808     -61943.322      755.45626      1010.2783      729.10578    
    962000   4211.7856      4130.0533     -67417.361      5443.6157     -61973.745      184449.96      12.600593     -61498.274      751.3437       1005.6758      740.08349    
    963000   4275.9904     -537.39811     -67378.292      5526.5987     -61851.693      184818.67      12.575454     -61913.684      760.1688       1005.0935      731.33762    
    964000   4198.2224     -1658.1363     -67369.951      5426.0858     -61943.865      185211.55      12.548779     -62135.545      766.59939      981.1338       742.32719    
    965000   4269.0703     -469.00689     -67424.815      5517.6547     -61907.16       184994.37      12.563511     -61961.314      771.40389      982.64493      736.64153    
    966000   4271.3044     -2561.6191     -67471.701      5520.5422     -61951.159      185034.76      12.560768     -62246.999      772.94578      985.05563      734.85662    
    967000   4250.4243     -1455.2011     -67478.156      5493.5552     -61984.601      184770.43      12.578737     -62152.421      785.56717      962.10904      732.82945    
    968000   4229.6403      2044.525      -67346.696      5466.6925     -61880.003      184937.22      12.567393     -61644.006      794.67108      965.06805      721.39287    
    969000   4294.8343      991.53246     -67544.241      5550.9539     -61993.287      184545.13      12.594094     -61879.078      791.67229      971.83985      719.07319    
    970000   4296.4474      2680.8163     -67432.818      5553.0388     -61879.779      184442.57      12.601097     -61571.164      788.14769      969.70657      726.28303    
    971000   4289.8873     -2069.9271     -67394.657      5544.56       -61850.097      185150.4       12.552923     -62089.302      793.66863      973.49358      723.31416    
    972000   4260.1282     -727.09162     -67383.879      5506.0973     -61877.781      185287.1       12.543662     -61961.867      791.36212      980.27241      724.36914    
    973000   4229.8724     -994.55478     -67375.93       5466.9924     -61908.937      184963.7       12.565594     -62023.754      791.19389      989.3497       719.41386    
    974000   4260.614      -239.97864     -67413.985      5506.7252     -61907.259      184754.14      12.579847     -61934.933      803.75122      977.24938      714.63036    
    975000   4260.3859      4483.7333     -67399.36       5506.4303     -61892.93       184562.77      12.59289      -61376.426      810.6793       980.74139      706.11692    
    976000   4270.9536      413.32375     -67373.235      5520.0888     -61853.146      184934.7       12.567564     -61805.438      813.47773      984.82471      704.61671    
    977000   4275.3727     -2448.8922     -67362.357      5525.8003     -61836.557      185329.97      12.54076      -62119.83       819.05576      984.76199      705.11235    
    978000   4245.4553      830.40406     -67450.136      5487.1329     -61963.003      184599.74      12.590368     -61867.325      819.02358      978.31904      707.26951    
    979000   4225.1082     -1932.2141     -67423.565      5460.8349     -61962.73       185090.94      12.556956     -62185.948      825.20279      981.7737       704.84713    
    980000   4226.5205     -1077.8546     -67375.301      5462.6602     -61912.641      184892.88      12.570407     -62037.026      834.39348      966.29612      706.13648    
    981000   4178.0943     -759.92932     -67473.73       5400.0707     -62073.66       184813.41      12.575812     -62161.319      834.83781      975.17491      703.98867    
    982000   4262.5726      2528.62       -67352.349      5509.2566     -61843.092      184757.16      12.579641     -61551.501      845.06945      969.45481      700.89915    
    983000   4205.3003      531.55082     -67430.965      5435.2337     -61995.732      184788.33      12.577519     -61934.425      837.2309       977.65448      705.84878    
    984000   4229.0976     -1261.1119     -67320.729      5465.991      -61854.738      185067.64      12.558537     -62000.409      849.67934      982.18308      697.459      
    985000   4215.8176     -645.55922     -67420.414      5448.827      -61971.587      184863.81      12.572384     -62046.074      855.55884      973.39235      697.7415     
    986000   4264.894      -2326.7715     -67378.652      5512.2568     -61866.395      185243.37      12.546623     -62135.416      850.84106      976.22798      703.7211     
    987000   4177.8072     -2162.7744     -67477.04       5399.6996     -62077.341      184729.6       12.581518     -62326.707      840.41645      1002.0852      695.50995    
    988000   4297.3748      1898.4883     -67467.362      5554.2374     -61913.125      184382.15      12.605227     -61694.642      843.67809      994.56847      697.39539    
    989000   4309.5119      1166.8387     -67374.761      5569.9243     -61804.836      185081.75      12.557579     -61670.044      844.13535      1004.5193      699.60375    
    990000   4234.349      -3234.8054     -67462.588      5472.7783     -61989.81       185038.67      12.560503     -62363.404      829.74143      1016.6659      706.54917    
    991000   4209.0415      1164.1039     -67459.765      5440.0691     -62019.696      184533.14      12.594913     -61885.618      819.70863      1023.7071      710.97864    
    992000   4252.6791     -3036.2245     -67311.726      5496.4695     -61815.256      185542.05      12.526426     -62166.87       824.49668      1028.72        712.7284     
    993000   4235.209       2466.0681     -67400.505      5473.8899     -61926.615      184641.96      12.58749      -61642.415      822.51023      1020.3405      714.91749    
    994000   4253.6575      2405.6213     -67480.41       5497.734      -61982.676      184528.61      12.595221     -61705.612      821.33608      1009.7844      724.80853    
    995000   4238.6376      520.89738     -67278.923      5478.3213     -61800.601      185131.16      12.554228     -61740.412      830.20576      1004.4759      724.83744    
    996000   4253.8429     -2111.0058     -67383.653      5497.9736     -61885.679      185133.14      12.554094     -62129.608      847.51452      991.80819      717.73212    
    997000   4226.1163      3219.3867     -67341.111      5462.1378     -61878.973      184766.47      12.579007     -61507.707      846.81513      974.28462      729.16241    
    998000   4249.4521      215.51645     -67393.633      5492.2986     -61901.334      184967.51      12.565335     -61876.453      838.13182      989.88492      732.62046    
    999000   4264.412      -1271.1851     -67457.574      5511.6339     -61945.94       184909.47      12.569279     -62092.65       843.74186      997.04916      724.2503     
   1000000   4260.9934      1065.0428     -67389.361      5507.2154     -61882.146      184981.35      12.564395     -61759.18       836.37039      994.63246      735.19057    
   1001000   4284.806      -2770.4664     -67407.616      5537.9926     -61869.624      185029.61      12.561118     -62189.575      838.83147      993.63841      736.0331     
   1002000   4288.1001      2624.542      -67316.641      5542.2501     -61774.391      184771.42      12.57867      -61471.715      823.7863       1018.8774      737.19198    
   1002307   4261.6136     -6205.1844     -67359.749      5508.0171     -61851.732      185747.81      12.51255      -62571.128      819.22968      1031.2498      742.25468    
Loop time of 964.199 on 40 procs for 1000000 steps with 10000 atoms

Performance: 89.608 ns/day, 0.268 hours/ns, 1037.130 timesteps/s, 10.371 Matom-step/s
95.5% CPU use with 40 MPI tasks x 1 OpenMP threads

MPI task timing breakdown:
Section |  min time  |  avg time  |  max time  |%varavg| %total
---------------------------------------------------------------
Pair    | 662.86     | 676.69     | 691.5      |  21.4 | 70.18
Neigh   | 11.859     | 11.983     | 12.107     |   1.5 |  1.24
Comm    | 158.28     | 171.6      | 186.42     |  43.4 | 17.80
Output  | 0.16263    | 0.49434    | 1.3317     |  32.7 |  0.05
Modify  | 85.758     | 87.804     | 89.439     |  10.0 |  9.11
Other   |            | 15.63      |            |       |  1.62

Nlocal:            250 ave         259 max         240 min
Histogram: 2 1 1 7 8 8 6 3 2 2
Nghost:        1400.72 ave        1422 max        1382 min
Histogram: 3 0 5 6 12 4 4 2 1 3
Neighs:        10711.2 ave       11121 max       10150 min
Histogram: 1 1 3 3 8 5 2 11 3 3

Total # of neighbors = 428449
Ave neighs/atom = 42.8449
Neighbor list builds = 26343
Dangerous builds = 0
	unfix           feq

write_data	liq_or_sol.data nocoeff
System init for write_data ...






Total wall time: 0:16:08
