

# Styles
	units        metal
	atom_style   atomic
	pair_style   eam/fs

# Neighbour list
	neighbor        2.0 bin
	neigh_modify    check yes


# Boundary conditions
	boundary p p p


# ----------------- Atom Definition Section -----------------

read_data "solid.data"
Reading data file ...
  orthogonal box = (-0.016319894 -0.026116788 -0.077393605) to (31.66632 31.676117 79.202394)
  2 by 2 by 10 MPI processor grid
  reading atom labelmap ...
  reading atoms ...
  5000 atoms
  reading velocities ...
  5000 velocities
  read_data CPU = 0.097 seconds

read_data "liquid.data" add append shift 37 0 0
Reading data file ...
WARNING: Non-zero image flags with growing box leads to bad coordinates (src/read_data.cpp:589)
  orthogonal box = (-0.016319894 -0.026116788 -0.077393605) to (68.66632 31.676117 79.202394)
  4 by 2 by 5 MPI processor grid
  reading atom labelmap ...
  reading atoms ...
  5000 atoms
  reading velocities ...
  5000 velocities
  read_data CPU = 0.117 seconds

# ----------------- Settings Section -----------------

include "coexistence.in.settings"
# ----- SETTINGS -----
# Forcefield
	pair_coeff * * W-Mo.eam.fs W Mo

# Collection of atoms
	group alloy type  1 2
10000 atoms in group alloy


# ----------------- Run Section -----------------

include "coexistence.in.run"
# Thermo output
	compute msd all msd

	thermo          1000
	thermo_style    custom step temp press pe ke etotal vol density enthalpy c_msd[1] c_msd[2] c_msd[3]
	thermo_modify   flush yes

# Dump configuration
	dump            d1 all custom 25000 coexistence_W-Mo.dump id type element x y z xu yu zu vx vy vz
	dump_modify     d1 element W Mo


# ----- EQUILIBRATION AT Ti -----
	minimize 1e-25 1e-25 5000 10000
Neighbor list info ...
  update: every = 1 steps, delay = 0 steps, check = yes
  max neighbors/atom: 2000, page size: 100000
  master list distance cutoff = 7.3
  ghost atom cutoff = 7.3
  binsize = 3.65, bins = 19 9 22
  1 neighbor lists, perpetual/occasional/extra = 1 0 0
  (1) pair eam/fs, perpetual
      attributes: half, newton on
      pair build: half/bin/atomonly/newton
      stencil: half/bin/3d
      bin: standard
Per MPI rank memory allocation (min/avg/max) = 4.855 | 4.862 | 4.87 Mbytes
   Step          Temp          Press          PotEng         KinEng         TotEng         Volume        Density        Enthalpy       c_msd[1]       c_msd[2]       c_msd[3]   
         0   3147.3145      737794.18     -12116.362      4067.8164     -8048.5456      172623.26      13.463879      71443.593      0              0              0            
      1000   3147.3145      10128.626     -76235.047      4067.8164     -72167.23       172623.26      13.463879     -71075.942      0.54472029     0.202136       0.20734378   
      2000   3147.3145     -180.17847     -76281.213      4067.8164     -72213.397      172623.26      13.463879     -72232.81       0.70364905     0.21621516     0.21542002   
      2307   3147.3145     -272.33714     -76281.705      4067.8164     -72213.888      172623.26      13.463879     -72243.231      0.70611361     0.21605454     0.21504173   
Loop time of 4.0509 on 40 procs for 2307 steps with 10000 atoms

95.2% CPU use with 40 MPI tasks x 1 OpenMP threads

Minimization stats:
  Stopping criterion = energy tolerance
  Energy initial, next-to-last, final = 
       -12116.36204945   -76281.704776988   -76281.704776988
  Force two-norm initial, final = 224306.09 4.4897918e-05
  Force max component initial, final = 94125.607 1.3486957e-05
  Final line search alpha, max atom move = 1 1.3486957e-05
  Iterations, force evaluations = 2307 4350

MPI task timing breakdown:
Section |  min time  |  avg time  |  max time  |%varavg| %total
---------------------------------------------------------------
Pair    | 2.5717     | 2.7659     | 3.0796     |   8.8 | 68.28
Neigh   | 0.020407   | 0.023156   | 0.027141   |   1.4 |  0.57
Comm    | 0.64933    | 0.90001    | 1.1055     |  13.8 | 22.22
Output  | 0.00018691 | 0.00020328 | 0.00066663 |   0.0 |  0.01
Modify  | 0          | 0          | 0          |   0.0 |  0.00
Other   |            | 0.3616     |            |       |  8.93

Nlocal:            250 ave         278 max         230 min
Histogram: 4 8 5 5 8 0 0 1 4 5
Nghost:        1459.78 ave        1553 max        1344 min
Histogram: 6 4 0 6 4 0 0 2 12 6
Neighs:        12457.9 ave       15369 max       10337 min
Histogram: 8 2 2 15 3 0 0 0 4 6

Total # of neighbors = 498316
Ave neighs/atom = 49.8316
Neighbor list builds = 48
Dangerous builds = 0

	fix             feq all npt temp ${Ti} ${Ti} ${tdamp} iso ${press} ${press} ${pdamp}
	fix             feq all npt temp 3300 ${Ti} ${tdamp} iso ${press} ${press} ${pdamp}
	fix             feq all npt temp 3300 3300 ${tdamp} iso ${press} ${press} ${pdamp}
	fix             feq all npt temp 3300 3300 0.1 iso ${press} ${press} ${pdamp}
	fix             feq all npt temp 3300 3300 0.1 iso 1 ${press} ${pdamp}
	fix             feq all npt temp 3300 3300 0.1 iso 1 1 ${pdamp}
	fix             feq all npt temp 3300 3300 0.1 iso 1 1 1
	run             2000000    # 2 ns
Per MPI rank memory allocation (min/avg/max) = 5.007 | 5.013 | 5.021 Mbytes
   Step          Temp          Press          PotEng         KinEng         TotEng         Volume        Density        Enthalpy       c_msd[1]       c_msd[2]       c_msd[3]   
      2307   3147.3145     -272.33714     -76281.705      4067.8164     -72213.888      172623.26      13.463879     -72243.231      0.70611361     0.21605454     0.21504173   
      3000   2662.5003     -1545.3679     -72190.554      3441.2076     -68749.346      176998.36      13.131075     -68920.069      1.843898       0.48028593     0.48240772   
      4000   3321.0417      58.081822     -70712.248      4292.3541     -66419.894      178738.8       13.003214     -66413.414      4.0854996      1.3284689      1.2694142    
      5000   3333.4349     -1340.3014     -71083.686      4308.3719     -66775.314      177618.68      13.085216     -66923.901      3.7020837      1.8449152      1.8627758    
      6000   3278.6546      1865.409      -71274.569      4237.5699     -67036.999      176710.93      13.152434     -66831.255      4.4073335      2.2626407      2.380886     
      7000   3301.6456      294.70181     -71411.189      4267.2851     -67143.904      176385.46      13.176703     -67111.46       4.5607639      2.6010251      2.7576341    
      8000   3309.7451     -34.652469     -71648.702      4277.7535     -67370.948      175995.32      13.205912     -67374.755      4.7662941      2.9296587      2.9544884    
      9000   3303.6031     -1827.7722     -71740.476      4269.8152     -67470.661      175681.86      13.229475     -67671.08       4.9624367      3.2194249      3.1911845    
     10000   3256.4387     -1834.1678     -71889.125      4208.8565     -67680.269      175111.55      13.272561     -67880.736      5.0271727      3.4175024      3.3687444    
     11000   3303.4125      508.52261     -72030.381      4269.5688     -67760.812      174587.13      13.312429     -67705.399      5.3004409      3.4819883      3.4888546    
     12000   3242.9238     -4192.1933     -72156.6        4191.3889     -67965.212      174791.08      13.296896     -68422.563      5.3297343      3.6723502      3.6481823    
     13000   3338.2084      1563.5819     -72215.159      4314.5415     -67900.618      174098.19      13.349816     -67730.713      5.6138925      3.7524342      3.793431     
     14000   3274.2995     -2463.2721     -72275.68       4231.941      -68043.739      174452.52      13.322701     -68311.952      5.5727147      3.8012406      3.8845681    
     15000   3294.0707      375.61237     -72375.27       4257.4948     -68117.775      173821.43      13.371071     -68077.024      5.6763025      3.9379194      3.9585673    
     16000   3325.6237     -2111.3866     -72483.747      4298.2761     -68185.471      174087.65      13.350624     -68414.887      5.7676669      3.9754353      4.0337774    
     17000   3294.4932      1776.7666     -72630.837      4258.0409     -68372.796      173193.83      13.419524     -68180.729      5.8447783      4.0885471      4.0428499    
     18000   3289.2778     -2063.16       -72879.401      4251.3001     -68628.101      172978.69      13.436215     -68850.85       5.851712       4.1280642      4.1463485    
     19000   3355.0305      1582.1244     -73071.019      4336.2836     -68734.735      172204.59      13.496613     -68564.686      5.8409318      4.1387667      4.1340885    
     20000   3287.6733     -1614.6417     -73178.79       4249.2263     -68929.564      172299.13      13.489208     -69103.204      5.8687001      4.1660136      4.1420257    
     21000   3277.0664      2495.2894     -73183.46       4235.5172     -68947.943      171916.98      13.519192     -68680.193      5.8603921      4.1406886      4.1391082    
     22000   3356.9631     -800.48438     -73156.718      4338.7814     -68817.937      172215.23      13.49578      -68903.98       5.9404985      4.170005       4.1613564    
     23000   3299.8445     -1084.6997     -73232.899      4264.9573     -68967.942      172132.21      13.502289     -69084.478      5.8340971      4.1769758      4.1775517    
     24000   3246.7613     -898.98432     -73162.413      4196.3487     -68966.065      172113.14      13.503785     -69062.638      5.9217381      4.1797286      4.1389255    
     25000   3329.4661     -1757.4571     -73268.273      4303.2423     -68965.03       172090.76      13.505541     -69153.8        5.8718817      4.1941335      4.1586267    
     26000   3364.8525     -1727.8524     -73223.669      4348.9782     -68874.69       172265.83      13.491816     -69060.469      5.8774193      4.20694        4.1954882    
     27000   3265.4726      2833.6142     -73258.641      4220.5326     -69038.109      171871.58      13.522764     -68734.136      5.9607033      4.1956816      4.1800787    
     28000   3314.3225     -836.38199     -73241.268      4283.6696     -68957.598      172135.52      13.502029     -69047.458      5.8998469      4.18555        4.160798     
     29000   3289.5764      2554.5403     -73337.005      4251.686      -69085.319      171670.11      13.538634     -68811.605      5.9301802      4.1990538      4.1620589    
     30000   3257.1637     -3882.4753     -73217.602      4209.7935     -69007.808      172229.05      13.494697     -69425.163      5.9127148      4.2169985      4.1801159    
     31000   3305.1248      4240.1077     -73295.224      4271.7818     -69023.442      171614         13.54306      -68569.271      5.8897557      4.2080749      4.1746992    
     32000   3312.2402     -3748.3092     -73334.28       4280.9784     -69053.301      172207.17      13.496411     -69456.182      5.8442779      4.2085844      4.181561     
     33000   3311.5161      1276.0393     -73281.395      4280.0425     -69001.353      171921.92      13.518804     -68864.427      5.8920288      4.2365646      4.1904622    
     34000   3252.5571     -130.86256     -73277.204      4203.8396     -69073.364      171969.63      13.515053     -69087.41       5.8473289      4.2073743      4.2046292    
     35000   3305.2599     -950.4762      -73217.576      4271.9565     -68945.62       172107.95      13.504191     -69047.721      5.8451828      4.2247331      4.2065051    
     36000   3321.7222      799.50484     -73384.432      4293.2336     -69091.198      171820.79      13.526761     -69005.458      5.8685004      4.2122799      4.1940464    
     37000   3285.7441      37.671003     -73351.711      4246.7329     -69104.978      171819.8       13.526839     -69100.938      5.8927064      4.2166476      4.2287934    
     38000   3290.9755      322.38998     -73272.569      4253.4943     -69019.075      171963.07      13.515569     -68984.472      5.902236       4.2467637      4.1842723    
     39000   3313.8247      2315.3515     -73259.185      4283.0262     -68976.159      171888.31      13.521448     -68727.758      5.9372453      4.2365448      4.2148677    
     40000   3307.026       39.696329     -73343.485      4274.2392     -69069.246      171887.51      13.521511     -69064.987      5.9235272      4.2353724      4.2015211    
     41000   3254.4047      1105.957      -73274.047      4206.2276     -69067.82       171750.65      13.532285     -68949.263      5.9721949      4.2250631      4.2360673    
     42000   3278.8819     -2383.5417     -73288.001      4237.8637     -69050.138      172093.23      13.505347     -69306.159      5.875507       4.2278031      4.2176127    
     43000   3322.7192      600.05197     -73319.136      4294.5221     -69024.614      171804.16      13.52807      -68960.269      5.8754911      4.2505582      4.2100299    
     44000   3313.74        739.7392      -73343.728      4282.9168     -69060.811      171753.72      13.532043     -68981.511      5.9591255      4.2410779      4.2188651    
     45000   3303.7758     -2150.1098     -73297.979      4270.0383     -69027.94       172090.84      13.505534     -69258.885      5.8188267      4.2650352      4.215678     
     46000   3323.7019      799.88008     -73231.323      4295.7922     -68935.531      171874.61      13.522525     -68849.723      5.9369638      4.2446531      4.1963575    
     47000   3330.9625     -4476.3741     -73356.846      4305.1764     -69051.67       172107.06      13.504262     -69532.525      5.809538       4.2460185      4.1914927    
     48000   3310.1855      1745.0848     -73261.881      4278.3227     -68983.559      171890.2       13.521299     -68796.336      5.9500421      4.2318308      4.2151612    
     49000   3304.3362      739.23101     -73198.607      4270.7627     -68927.845      172015.23      13.511471     -68848.478      5.8459171      4.2589718      4.2142421    
     50000   3257.6505      213.50786     -73334.008      4210.4226     -69123.585      171732.1       13.533747     -69100.7        5.9392082      4.2382436      4.2327224    
     51000   3298.1888     -1588.6722     -73357.259      4262.8173     -69094.442      171870.91      13.522816     -69264.864      5.844321       4.2530556      4.2210161    
     52000   3334.6637      2991.3343     -73309.661      4309.9601     -68999.701      171714.98      13.535096     -68679.101      5.8728652      4.243937       4.2365633    
     53000   3301.756      -1056.946      -73276.247      4267.4278     -69008.82       172041.91      13.509375     -69122.315      5.877513       4.2549427      4.2096644    
     54000   3295.4084      2735.9319     -73331.113      4259.2237     -69071.89       171641.77      13.540869     -68778.788      5.9115399      4.2616423      4.2289998    
     55000   3242.6306      2245.8548     -73341.068      4191.0099     -69150.058      171583.8       13.545444     -68909.54       5.9789833      4.2358522      4.2061482    
     56000   3248.4237     -271.13645     -73371.289      4198.4973     -69172.792      171754.52      13.53198      -69201.858      5.8711832      4.2424872      4.2313865    
     57000   3356.0479     -432.29156     -73311.181      4337.5985     -68973.582      171964.79      13.515433     -69019.981      5.9415782      4.2384249      4.2435117    
     58000   3331.3181      1400.3463     -73404.937      4305.636      -69099.301      171665.75      13.538978     -68949.261      5.9045927      4.2545737      4.2444232    
     59000   3315.1031     -800.12743     -73349.077      4284.6786     -69064.398      171934.82      13.51779      -69150.263      5.9477671      4.2419553      4.2221608    
     60000   3316.766      -1833.0058     -73359.028      4286.8278     -69072.2        171936.28      13.517675     -69268.908      5.8799902      4.2542126      4.2083773    
     61000   3291.7116      2938.7335     -73289.631      4254.4456     -69035.185      171705.18      13.535868     -68720.241      5.9575319      4.2641978      4.2458041    
     62000   3299.1587     -3010.061      -73291.31       4264.0708     -69027.239      172154.61      13.500531     -69350.671      5.8906906      4.2650464      4.2382029    
     63000   3227.0881      2896.9121     -73281.001      4170.9217     -69110.08       171699.59      13.536309     -68799.628      5.9693715      4.2561924      4.250344     
     64000   3321.9555      2623.9566     -73411.724      4293.5351     -69118.189      171542.82      13.54868      -68837.245      5.8964575      4.2429127      4.1912326    
     65000   3287.5393     -1683.2487     -73345.998      4249.0531     -69096.945      172000.39      13.512636     -69277.648      5.9030333      4.2652023      4.207988     
     66000   3306.2137     -724.99163     -73311.271      4273.1893     -69038.081      171885.3       13.521684     -69115.86       5.899724       4.2736167      4.2285895    
     67000   3308.6161      2691.1172     -73336.926      4276.2943     -69060.632      171654.86      13.539836     -68772.309      5.9892981      4.2414378      4.2389062    
     68000   3309.6757     -1130.4681     -73324.227      4277.6638     -69046.563      171948.03      13.516752     -69167.887      5.9312636      4.263703       4.2422233    
     69000   3289.5949      1676.8022     -73300.423      4251.7099     -69048.713      171771.11      13.530673     -68868.941      5.9499882      4.264309       4.2256731    
     70000   3267.2164     -223.62031     -73306.999      4222.7864     -69084.213      171959.47      13.515852     -69108.214      5.9208228      4.2726279      4.2250206    
     71000   3310.2324      904.95588     -73327.939      4278.3834     -69049.555      171762.32      13.531365     -68952.539      5.9047864      4.256613       4.251407     
     72000   3325.5286     -1987.7428     -73339.629      4298.1532     -69041.476      172054.88      13.508357     -69254.936      5.932567       4.256484       4.241152     
     73000   3337.5886      333.49616     -73375.074      4313.7404     -69061.334      171807.57      13.527802     -69025.572      5.931066       4.2585116      4.254304     
     74000   3298.3729     -586.2818      -73271.657      4263.0552     -69008.602      171959.47      13.515852     -69071.527      5.8890121      4.2575018      4.2435413    
     75000   3318.3255      4347.7236     -73389.145      4288.8434     -69100.301      171493.1       13.552608     -68634.931      5.9542694      4.2465079      4.2265493    
     76000   3288.1372     -1661.7873     -73290.545      4249.8259     -69040.719      171926.08      13.518477     -69219.042      5.8777065      4.2476636      4.2471411    
     77000   3291.8108      81.478637     -73353.917      4254.5739     -69099.343      171777.77      13.530149     -69090.607      5.9824649      4.2451614      4.2367489    
     78000   3300.8334      2121.5507     -73340.013      4266.2354     -69073.777      171672.29      13.538462     -68846.454      5.9333157      4.2418479      4.2607992    
     79000   3309.967      -230.35023     -73279.73       4278.0403     -69001.69       171972.3       13.514844     -69026.415      5.9459771      4.2419759      4.2308927    
     80000   3290.0704     -282.55367     -73322.426      4252.3245     -69070.102      171816.96      13.527063     -69100.403      5.9199771      4.2420372      4.2692246    
     81000   3286.6527     -3283.078      -73341.528      4247.9072     -69093.621      172052.12      13.508574     -69446.179      5.9353167      4.2704437      4.2177357    
     82000   3318.2246      1627.3398     -73302.569      4288.713      -69013.856      171799.26      13.528456     -68839.358      5.9319271      4.243868       4.2387113    
     83000   3273.4697      228.15035     -73343.323      4230.8685     -69112.454      171789.04      13.529261     -69087.992      5.9369941      4.2553074      4.2296768    
     84000   3298.0523      62.230247     -73326.967      4262.6408     -69064.327      171852.1       13.524296     -69057.652      5.9381041      4.2403184      4.2282031    
     85000   3300.3763      1374.9988     -73293.067      4265.6445     -69027.423      171785.88      13.529509     -68879.995      5.9389369      4.2619296      4.2472117    
     86000   3302.6118     -3740.6515     -73389.515      4268.5339     -69120.981      171945.02      13.516988     -69522.427      5.959753       4.2372229      4.2273002    
     87000   3324.8598      991.95576     -73308.905      4297.2888     -69011.617      171758.68      13.531653     -68905.276      5.9145187      4.2579587      4.2584763    
     88000   3335.9437     -835.70281     -73374.922      4311.6144     -69063.307      171891.91      13.521164     -69152.967      5.9979157      4.2637796      4.241437     
     89000   3287.497      -3035.3999     -73316.173      4248.9985     -69067.174      172072.96      13.506938     -69393.175      5.9505777      4.2654225      4.2608091    
     90000   3315.4699      4110.5159     -73307.825      4285.1527     -69022.672      171582.32      13.545561     -68582.464      6.0326852      4.2555089      4.2479414    
     91000   3231.0689     -2881.3559     -73329.865      4176.0667     -69153.799      171989.37      13.513503     -69463.105      5.9923651      4.285092       4.2473334    
     92000   3286.8812      107.07697     -73273.867      4248.2025     -69025.664      171801.84      13.528253     -69014.182      6.0114589      4.2580634      4.2414437    
     93000   3265.6289      423.11687     -73358.662      4220.7345     -69137.927      171769.22      13.530822     -69092.565      6.0068946      4.2771178      4.2494624    
     94000   3322.5505     -4790.0595     -73324.851      4294.3041     -69030.547      172182.53      13.498343     -69545.324      5.9418591      4.2747348      4.2473839    
     95000   3303.4351      4728.7822     -73355.804      4269.598      -69086.206      171378.26      13.561689     -68580.388      6.0365641      4.2585996      4.2638911    
     96000   3290.7269     -4181.8742     -73356.42       4253.173      -69103.247      172116.95      13.503485     -69552.493      6.0172607      4.2600152      4.2477815    
     97000   3348.0631      730.09952     -73396.648      4327.2785     -69069.37       171639.26      13.541067     -68991.155      6.0309994      4.2468549      4.260726     
     98000   3292.969      -675.99131     -73327.04       4256.0708     -69070.97       171961.34      13.515705     -69143.524      6.0395534      4.2920246      4.2585872    
     99000   3333.0587      1193.3216     -73289.072      4307.8856     -68981.187      171890.83      13.521249     -68853.16       5.9625728      4.282696       4.2518504    
    100000   3297.9208      713.86793     -73342.12       4262.4709     -69079.649      171713.1       13.535244     -69003.14       6.0352427      4.2667375      4.2654972    
    101000   3293.9363     -4379.3221     -73345.515      4257.3211     -69088.194      172130.52      13.502421     -69558.688      5.9132338      4.2820176      4.2586499    
    102000   3300.6501      6593.1057     -73345.868      4265.9985     -69079.87       171314.79      13.566714     -68374.893      6.0366233      4.2531523      4.266877     
    103000   3271.3859     -2696.1767     -73294.916      4228.1753     -69066.74       172031.22      13.510215     -69356.238      5.9554752      4.2752684      4.2265493    
    104000   3235.2643      4.8463348     -73399.612      4181.4892     -69218.123      171675.79      13.538186     -69217.603      6.0733418      4.278761       4.2513956    
    105000   3264.1676      22.126865     -73337.886      4218.8458     -69119.04       171797.51      13.528594     -69116.667      5.9211017      4.2653416      4.2484557    
    106000   3320.1627     -1402.1583     -73345.975      4291.2179     -69054.757      171914.95      13.519352     -69205.21       6.0658733      4.2914343      4.2740817    
    107000   3308.1944      3085.7657     -73320.439      4275.7493     -69044.69       171623.33      13.542324     -68714.146      5.9655588      4.2587909      4.2668753    
    108000   3292.4455      964.88354     -73331.189      4255.3943     -69075.795      171759.7       13.531572     -68972.356      6.003322       4.262714       4.2749181    
    109000   3300.3065      1564.8636     -73291.193      4265.5544     -69025.639      171839.01      13.525327     -68857.802      5.957271       4.2713476      4.2775436    
    110000   3288.9358     -2240.9445     -73348.582      4250.8581     -69097.724      171952.25      13.51642      -69338.231      5.9638086      4.2757098      4.2836762    
    111000   3321.0556      2984.3395     -73325.221      4292.372      -69032.849      171532.68      13.549481     -68713.339      5.9973036      4.27919        4.2603615    
    112000   3309.2059     -5860.9857     -73325.885      4277.0566     -69048.828      172272.53      13.49129      -69679.025      5.9504997      4.2795919      4.2835083    
    113000   3327.3753      676.74135     -73297.657      4300.54       -68997.117      171750.17      13.532322     -68924.572      5.9842684      4.290403       4.2874503    
    114000   3244.1515     -3046.3646     -73368.104      4192.9756     -69175.129      171958.69      13.515913     -69502.09       5.9604776      4.280895       4.2612748    
    115000   3265.6173      3125.9341     -73326.7        4220.7196     -69105.98       171591.38      13.544846     -68771.196      6.0100999      4.2895939      4.2782792    
    116000   3317.098       1372.3538     -73414.589      4287.2569     -69127.332      171623.39      13.542319     -68980.327      5.9809196      4.2858794      4.2891982    
    117000   3332.273       298.36122     -73314.582      4306.8701     -69007.712      171867.32      13.523099     -68975.707      6.0152015      4.2984067      4.294103     
    118000   3288.5638      455.43786     -73333.844      4250.3773     -69083.467      171785.9       13.529509     -69034.635      5.9873025      4.283514       4.2609983    
    119000   3285.1892     -2437.3613     -73344.479      4246.0157     -69098.463      172004.63      13.512303     -69360.13       5.9597227      4.2724082      4.2474805    
    120000   3282.971       1430.1236     -73330.867      4243.1487     -69087.718      171636.86      13.541257     -68934.513      6.0117101      4.2702786      4.2669672    
    121000   3323.1965      2570.692      -73337.628      4295.1391     -69042.489      171683.74      13.537559     -68767.022      6.0094765      4.2745874      4.2666684    
    122000   3270.9569     -1756.8705     -73338.293      4227.6209     -69110.673      171899.81      13.520543     -69299.17       6.0128376      4.3014306      4.288921     
    123000   3272.5136      3526.4922     -73340.305      4229.6329     -69110.673      171653.74      13.539925     -68732.852      6.0186996      4.2704697      4.2824314    
    124000   3316.8601     -3162.8262     -73265.67       4286.9494     -68978.721      172186.83      13.498005     -69318.632      5.9519125      4.292169       4.2618033    
    125000   3267.5241      2463.9487     -73350.846      4223.184      -69127.662      171646.3       13.540511     -68863.691      6.0189114      4.2776179      4.2412142    
    126000   3256.3875     -1256.9719     -73372.566      4208.7903     -69163.775      171735.64      13.533468     -69298.509      5.9777417      4.2838023      4.281648     
    127000   3305.7759     -680.28465     -73274.327      4272.6235     -69001.704      171982.04      13.514078     -69074.728      5.9817194      4.2900049      4.2524384    
    128000   3309.4482      2150.6812     -73273.072      4277.3698     -68995.702      171777.18      13.530195     -68765.117      5.9580591      4.2567583      4.2751631    
    129000   3287.686      -2766.1772     -73333.098      4249.2427     -69083.855      171936.44      13.517662     -69380.706      6.0422409      4.2812535      4.2506728    
    130000   3299.9099      2226.4208     -73325.107      4265.0418     -69060.065      171709.12      13.535558     -68821.454      6.0027075      4.2926072      4.2671868    
    131000   3269.2177     -2156.5232     -73377.271      4225.373      -69151.898      171952.19      13.516424     -69383.345      5.9912526      4.3025965      4.2691114    
    132000   3277.9137      3221.9325     -73341.978      4236.6122     -69105.365      171540.95      13.548827     -68760.401      6.0144317      4.2876792      4.2803726    
    133000   3384.3678      151.14881     -73282.257      4374.2012     -68908.055      171962.83      13.515588     -68891.832      6.03531        4.2983673      4.261012     
    134000   3292.8025      2066.0443     -73341.351      4255.8556     -69085.495      171722.54      13.5345       -68864.055      6.0731106      4.3021333      4.2651528    
    135000   3311.6405      388.29736     -73325.755      4280.2033     -69045.551      171881.05      13.522019     -69003.895      6.0526698      4.2915568      4.2936364    
    136000   3277.9426      1082.9288     -73299.225      4236.6497     -69062.575      171852.31      13.52428      -68946.418      6.0451858      4.2936268      4.2780213    
    137000   3299.7105      126.07933     -73334.619      4264.7841     -69069.834      171892.22      13.52114      -69056.308      6.0383441      4.3084738      4.2854439    
    138000   3298.3852     -1573.668      -73267.527      4263.0712     -69004.456      171990.7       13.513398     -69173.386      5.9711161      4.3153114      4.2706089    
    139000   3278.9624      2581.6945     -73319.146      4237.9678     -69081.178      171699.74      13.536298     -68804.507      6.0778539      4.3098257      4.2924432    
    140000   3329.0893     -2816.2324     -73307.201      4302.7553     -69004.446      172092.09      13.505436     -69306.942      5.9941027      4.293953       4.28099      
    141000   3290.7621      2544.5857     -73289.682      4253.2185     -69036.463      171824.22      13.526491     -68763.571      6.0368514      4.322884       4.2887744    
    142000   3302.2844     -3235.1754     -73300.158      4268.1108     -69032.048      172150.62      13.500845     -69379.661      5.9811836      4.3297633      4.3027505    
    143000   3316.4956      3722.7121     -73351.283      4286.4784     -69064.804      171532.5       13.549495     -68666.243      6.0285922      4.2902634      4.2820892    
    144000   3304.6431     -4835.6459     -73316.16       4271.1594     -69045          172205.32      13.496556     -69564.746      5.9858021      4.3410615      4.2789696    
    145000   3302.3731      2083.5982     -73391.197      4268.2254     -69122.971      171685.33      13.537434     -68899.698      6.0223107      4.3048278      4.2939087    
    146000   3306.2534      1332.6151     -73342.044      4273.2406     -69068.803      171726.65      13.534176     -68925.969      6.0359638      4.3049617      4.288028     
    147000   3341.1542     -3222.1444     -73356.829      4318.3488     -69038.48       171994.8       13.513076     -69384.379      6.029515       4.3317091      4.2773106    
    148000   3309.6359      2446.7997     -73413.972      4277.6124     -69136.36       171515.88      13.550808     -68874.425      6.05112        4.3061009      4.2943006    
    149000   3294.6807     -3362.6556     -73291.634      4258.2832     -69033.35       172215.34      13.495771     -69394.797      6.0253341      4.3431657      4.300979     
    150000   3323.4033      460.88202     -73323.792      4295.4063     -69028.386      171799.18      13.528462     -68978.966      6.0004406      4.3319869      4.3076218    
    151000   3302.7037      1086.6446     -73369.469      4268.6527     -69100.816      171625.65      13.542141     -68984.414      6.0538487      4.3091956      4.2515396    
    152000   3309.623      -4133.9893     -73259.982      4277.5957     -68982.387      172238.73      13.493938     -69426.803      5.9820563      4.3237376      4.3095103    
    153000   3308.9481      598.49826     -73348.129      4276.7233     -69071.406      171776.59      13.530241     -69007.238      6.0437749      4.306051       4.2583623    
    154000   3279.5462     -1671.7189     -73428.502      4238.7223     -69189.779      171892.68      13.521103     -69369.133      5.997207       4.3287365      4.31786      
    155000   3287.0693      2158.6382     -73280.367      4248.4456     -69031.921      171774.15      13.530434     -68800.487      6.0555634      4.320807       4.287701     
    156000   3299.343       164.39902     -73350.466      4264.3091     -69086.157      171705.88      13.535814     -69068.538      5.9944355      4.3393053      4.3011519    
    157000   3289.4682     -3739.6086     -73375.118      4251.5462     -69123.572      171985.1       13.513838     -69524.999      6.0085974      4.3425222      4.3204788    
    158000   3294.0238      6266.3609     -73418.909      4257.4342     -69161.475      171181.25      13.577297     -68491.958      6.0685001      4.3236848      4.3082016    
    159000   3269.2632     -2403.7951     -73312.436      4225.4317     -69087.004      171993.18      13.513203     -69345.05       6.0805402      4.3325008      4.3106012    
    160000   3270.6359      196.4402      -73300.188      4227.206      -69072.982      171766.41      13.531043     -69051.922      6.0350557      4.3134052      4.3363049    
    161000   3321.5195      153.00279     -73277.518      4292.9716     -68984.546      171908.6       13.519852     -68968.129      6.0958226      4.3252028      4.3397843    
    162000   3272.5472      4293.4605     -73354.952      4229.6762     -69125.276      171436.84      13.557055     -68665.865      6.0509838      4.2953262      4.3056314    
    163000   3304.6992     -4800.8606     -73282.188      4271.2319     -69010.956      172223.35      13.495143     -69527.016      6.0259764      4.3161402      4.3150327    
    164000   3328.9289      4017.2637     -73287.232      4302.548      -68984.684      171658.02      13.539587     -68554.273      6.0757634      4.3223712      4.3040579    
    165000   3310.4559     -532.04027     -73322.002      4278.6722     -69043.33       171953.81      13.516297     -69100.431      6.0300884      4.3344789      4.3292542    
    166000   3255.7684      311.69387     -73295.02       4207.9901     -69087.03       171842.38      13.525062     -69053.599      6.0853826      4.3348739      4.3494945    
    167000   3287.8613     -1980.585      -73245.221      4249.4693     -68995.751      172043.25      13.50927      -69208.428      6.0231039      4.3796754      4.3172953    
    168000   3281.8024     -1742.2786     -73301.078      4241.6383     -69059.439      172040.04      13.509522     -69246.524      6.1121057      4.3360194      4.3264034    
    169000   3311.7265      5006.763      -73330.912      4280.3145     -69050.598      171499.8       13.552078     -68514.665      6.0615148      4.3315387      4.3157239    
    170000   3296.1092     -1632.269      -73367.226      4260.1295     -69107.097      171883.14      13.521854     -69282.208      6.1281094      4.3459712      4.3727515    
    171000   3298.9418      3729.1352     -73308.576      4263.7906     -69044.785      171572.26      13.546355     -68645.443      6.0594241      4.3571892      4.3267688    
    172000   3307.3092     -3742.4715     -73334.256      4274.6052     -69059.65       172079.95      13.506389     -69461.606      6.0632401      4.373518       4.3272965    
    173000   3311.9848      742.75779     -73357.423      4280.6482     -69076.775      171778.74      13.530072     -68997.139      6.0788343      4.35502        4.354962     
    174000   3328.0182     -2753.3265     -73328.995      4301.371      -69027.624      171994.62      13.51309      -69323.195      6.082733       4.3528873      4.3286776    
    175000   3292.3675     -1324.3372     -73340.822      4255.2935     -69085.528      171985.08      13.51384      -69227.689      6.0668115      4.3511811      4.3424283    
    176000   3317.3924      3941.6337     -73368.304      4287.6374     -69080.667      171581.18      13.545651     -68658.547      6.1267885      4.3634199      4.3383338    
    177000   3291.1825     -3017.7562     -73408.61       4253.7619     -69154.848      171923.24      13.5187       -69478.672      6.0786675      4.3481784      4.3415779    
    178000   3353.2992      2796.7555     -73332.44       4334.0459     -68998.394      171604.95      13.543774     -68698.841      6.0923034      4.3555717      4.368103     
    179000   3305.2085     -587.17745     -73290.668      4271.8901     -69018.778      172003.12      13.512422     -69081.815      6.0771092      4.338081       4.3481577    
    180000   3316.5075      1924.3428     -73359.502      4286.4936     -69073.008      171712.32      13.535306     -68866.768      6.0983205      4.3670408      4.3652522    
    181000   3292.5222      2801.4622     -73290.636      4255.4934     -69035.143      171680.21      13.537837     -68734.954      6.0573778      4.3536811      4.3657115    
    182000   3312.1318     -1635.9983     -73293.369      4280.8382     -69012.531      171987.03      13.513687     -69188.148      6.0808632      4.374018       4.3520076    
    183000   3318.2151      3306.1467     -73252.941      4288.7007     -68964.24       171720.32      13.534675     -68609.89       6.0423799      4.3515182      4.3472039    
    184000   3302.8324     -2874.965      -73400.562      4268.819      -69131.743      171988.23      13.513592     -69440.36       6.1070474      4.3747797      4.3718686    
    185000   3307.5574      3664.1043     -73378.19       4274.926      -69103.264      171492.15      13.552683     -68711.069      6.1354466      4.3571532      4.3526053    
    186000   3274.2102     -1838.8588     -73374.507      4231.8256     -69142.681      171920.81      13.518891     -69339.999      6.0987668      4.3727266      4.3471889    
    187000   3301.0982      1557.0426     -73303.707      4266.5777     -69037.129      171725.89      13.534236     -68870.241      6.11154        4.3696299      4.3546902    
    188000   3268.9272     -1331.8596     -73332.058      4224.9975     -69107.061      171937.49      13.51758      -69249.989      6.0826734      4.3706318      4.3665653    
    189000   3340.8348      4628.6979     -73321.539      4317.9361     -69003.603      171628.13      13.541945     -68507.769      6.1155843      4.3683112      4.3941257    
    190000   3280.1205     -2479.3945     -73310.903      4239.4646     -69071.438      171962.37      13.515624     -69337.553      6.0690597      4.3964122      4.3792891    
    191000   3344.866      -688.7398      -73341.579      4323.1462     -69018.433      171863.95      13.523364     -69092.313      6.0939758      4.386692       4.3843694    
    192000   3297.8406      1597.7849     -73399.642      4262.3673     -69137.275      171719.79      13.534717     -68966.026      6.1259969      4.3708278      4.3575982    
    193000   3278.7437     -1345.2918     -73281.097      4237.6851     -69043.412      172099.66      13.504843     -69187.918      6.0549765      4.3843242      4.3860443    
    194000   3310.4988      3537.7215     -73295.378      4278.7277     -69016.651      171697.34      13.536487     -68637.53       6.0698823      4.3678151      4.366472     
    195000   3300.8737     -1516.8025     -73332.311      4266.2874     -69066.024      171959.72      13.515832     -69228.821      6.1390245      4.4021134      4.3864044    
    196000   3335.8906      23.000511     -73328          4311.5458     -69016.454      171808.85      13.527701     -69013.987      5.9977356      4.4029934      4.3693792    
    197000   3258.5902     -2829.054      -73266.628      4211.6373     -69054.991      172181.3       13.498439     -69359.021      6.0821145      4.3792378      4.3807556    
    198000   3325.6182      6030.8662     -73354.466      4298.269      -69056.197      171399         13.560048     -68411.022      6.0468498      4.4119398      4.395989     
    199000   3297.9662     -4193.1983     -73284.159      4262.5296     -69021.629      172095.55      13.505165     -69472.036      6.1123402      4.4062417      4.3918203    
    200000   3308.032       946.83145     -73401.268      4275.5394     -69125.728      171628.86      13.541888     -69024.301      6.0849525      4.4068382      4.3939787    
    201000   3281.7416      364.25943     -73345.172      4241.5598     -69103.612      171774.31      13.530421     -69064.559      6.1024356      4.3918162      4.3720545    
    202000   3335.7196     -644.29756     -73319.411      4311.3248     -69008.086      172004.84      13.512287     -69077.256      6.0700488      4.3999396      4.3999931    
    203000   3330.8899     -3784.5803     -73304.963      4305.0826     -68999.88       172202.1       13.496809     -69406.647      6.0046935      4.4255169      4.3630218    
    204000   3275.4582      5804.7261     -73286.477      4233.4386     -69053.038      171454.81      13.555634     -68431.853      6.1434718      4.4143794      4.3942245    
    205000   3272.027       1716.4125     -73358.903      4229.0039     -69129.899      171705.81      13.535819     -68945.95       6.0617555      4.3928343      4.4135327    
    206000   3256.1699      100.34726     -73297.616      4208.509      -69089.107      171844.76      13.524874     -69078.344      6.1723313      4.4327792      4.4387389    
    207000   3291.312       1716.5905     -73263.908      4253.9293     -69009.979      171734.05      13.533593     -68825.981      6.0901331      4.4239073      4.40375      
    208000   3282.7344      695.90505     -73325.314      4242.843      -69082.471      171800.05      13.528394     -69007.849      6.1633005      4.4234372      4.3974538    
    209000   3348.904       1822.5363     -73354.249      4328.3653     -69025.884      171703.35      13.536013     -68830.565      6.0708584      4.4364311      4.4024704    
    210000   3306.3548      669.54012     -73343.61       4273.3717     -69070.238      171739.87      13.533134     -68998.469      6.142142       4.4276355      4.4292243    
    211000   3276.7291     -765.17943     -73440.848      4235.0812     -69205.767      171756.47      13.531827     -69287.796      6.081596       4.4252825      4.4008451    
    212000   3267.3886      3104.0923     -73343.32       4223.0089     -69120.312      171562.29      13.547142     -68787.923      6.1518676      4.4130826      4.3947226    
    213000   3293.3042     -4066.7584     -73336.278      4256.5041     -69079.774      172130.39      13.502431     -69516.688      6.0390696      4.4354507      4.4078166    
    214000   3295.8109     -907.35865     -73288.68       4259.744      -69028.936      171936.23      13.517679     -69126.309      6.088808       4.4283367      4.3805904    
    215000   3286.6558      2441.1624     -73288.704      4247.9112     -69040.792      171706.33      13.535778     -68779.171      6.1321005      4.4327514      4.4175637    
    216000   3281.2478     -2771.9255     -73325.897      4240.9216     -69084.975      172102.05      13.504654     -69382.729      6.121684       4.45563        4.3982286    
    217000   3322.8888      907.85591     -73320.693      4294.7413     -69025.951      171758.34      13.531679     -68928.626      6.1866578      4.4145623      4.4410306    
    218000   3285.9206      877.90996     -73341.988      4246.961      -69095.027      171784.77      13.529597     -69000.898      6.0902788      4.4260598      4.4007446    
    219000   3295.3367     -2495.3464     -73318.2        4259.131      -69059.069      172008.7       13.511984     -69326.968      6.1705769      4.4469434      4.4185679    
    220000   3299.6749      2167.9531     -73407.207      4264.738      -69142.469      171501.9       13.551912     -68910.405      6.1064955      4.4492124      4.3914755    
    221000   3334.7453     -2996.8084     -73291.497      4310.0655     -68981.431      172283.46      13.490434     -69303.681      6.1885006      4.4408943      4.4250886    
    222000   3343.4104      1287.0221     -73412.944      4321.2649     -69091.679      171546.11      13.54842      -68953.877      6.1257507      4.4419258      4.4300025    
    223000   3313.9636     -1252.6204     -73293.238      4283.2057     -69010.032      172018.77      13.511193     -69144.521      6.1799253      4.4398         4.4064751    
    224000   3298.6081      1852.1012     -73355.906      4263.3592     -69092.546      171612.61      13.54317      -68894.164      6.0817494      4.4343637      4.3961705    
    225000   3268.8343     -1692.5618     -73385.397      4224.8774     -69160.519      171906.39      13.520025     -69342.124      6.1604086      4.454507       4.412032     
    226000   3348.2043     -1805.7763     -73337.433      4327.4609     -69009.972      171933.9       13.517862     -69203.755      6.0988146      4.4610419      4.4342551    
    227000   3328.6083     -12.517852     -73346.793      4302.1337     -69044.659      171821.92      13.526672     -69046.002      6.1327907      4.4467817      4.412882     
    228000   3273.8617     -2252.1389     -73349.67       4231.3753     -69118.295      171975.56      13.514588     -69360.037      6.1536882      4.4442981      4.4125888    
    229000   3319.5841      424.9827      -73375.497      4290.4702     -69085.027      171712.82      13.535266     -69039.48       6.1303879      4.4242918      4.4029049    
    230000   3346.3031      1012.5976     -73330.017      4325.0037     -69005.013      171786.98      13.529423     -68896.442      6.2056249      4.446358       4.4197251    
    231000   3291.0334     -5324.7788     -73312.463      4253.5691     -69058.894      172253.17      13.492807     -69631.371      6.0841214      4.4912536      4.4256953    
    232000   3353.6942      1424.4628     -73331.302      4334.5565     -68996.746      171666.87      13.538889     -68844.12       6.1833418      4.442413       4.4149591    
    233000   3268.1833     -2780.0991     -73338.162      4224.036      -69114.126      171910.03      13.519739     -69412.424      6.1102447      4.4673058      4.4287629    
    234000   3304.6068      1484.7146     -73332.587      4271.1123     -69061.475      171699         13.536356     -68902.364      6.1850968      4.443882       4.4114388    
    235000   3346.5189      69.192814     -73255.305      4325.2826     -68930.023      171973.31      13.514764     -68922.596      6.127065       4.4758478      4.4472381    
    236000   3344.0397     -2362.8791     -73283.238      4322.0783     -68961.159      172114.3       13.503693     -69214.992      6.0653869      4.4474531      4.4072546    
    237000   3296.9929      6486.3842     -73301.482      4261.2717     -69040.21       171378.43      13.561676     -68346.387      6.2425069      4.4621731      4.4346936    
    238000   3220.7965     -1558.3401     -73276.178      4162.7898     -69113.388      171997.29      13.51288      -69280.68       6.0883832      4.4613878      4.4232779    
    239000   3304.8451      1648.3207     -73354.631      4271.4204     -69083.211      171681.4       13.537743     -68906.585      6.206596       4.4670762      4.4546749    
    240000   3273.0137     -2881.7664     -73332.609      4230.2792     -69102.33       172008.06      13.512034     -69411.713      6.1276379      4.4645186      4.4195545    
    241000   3322.4117     -1296.4702     -73314.178      4294.1247     -69020.054      171864.12      13.523351     -69159.125      6.1481762      4.4612093      4.4337965    
    242000   3309.5289     -3485.8387     -73394.348      4277.474      -69116.874      172003.86      13.512364     -69491.101      6.1117889      4.5099873      4.4194043    
    243000   3249.3289     -593.10385     -73307.033      4199.6673     -69107.365      171876.09      13.522409     -69170.991      6.1687514      4.4630761      4.436494     
    244000   3326.8337      2888.4423     -73298.629      4299.8401     -68998.789      171667.48      13.538841     -68689.302      6.1920851      4.4749002      4.4561254    
    245000   3355.1167     -2825.7414     -73329.013      4336.395      -68992.618      172086.06      13.50591      -69296.125      6.171005       4.4923495      4.4502371    
    246000   3320.1943      1624.6417     -73321.121      4291.2588     -69029.862      171814.35      13.527268     -68855.638      6.1045537      4.4783939      4.4407259    
    247000   3326.2223     -720.21327     -73397.491      4299.0499     -69098.441      171837.7       13.52543      -69175.685      6.1803908      4.4826561      4.4287347    
    248000   3311.5441      168.18841     -73258.171      4280.0787     -68978.093      171954.1       13.516274     -68960.042      6.0908641      4.4888459      4.4417434    
    249000   3305.5509      699.336       -73361.151      4272.3326     -69088.818      171776.36      13.53026      -69013.839      6.1750516      4.4840346      4.4476245    
    250000   3318.8946     -2020.6411     -73326.148      4289.579      -69036.569      171932.94      13.517938     -69253.408      6.1247801      4.4728384      4.4433159    
    251000   3306.6085      757.4955      -73406.025      4273.6995     -69132.326      171700.48      13.536239     -69051.147      6.1271441      4.4752383      4.4395833    
    252000   3351.1467      1701.1302     -73362.15       4331.2639     -69030.887      171743.41      13.532855     -68848.536      6.1314689      4.4899558      4.437857     
    253000   3275.7419     -547.67518     -73366.535      4233.8053     -69132.73       171763.42      13.531279     -69191.444      6.1529783      4.470494       4.4365398    
    254000   3294.2852      50.556466     -73394.042      4257.772      -69136.27       171691.34      13.536959     -69130.852      6.2036419      4.4746278      4.4528751    
    255000   3310.92       -608.98827     -73338.561      4279.272      -69059.289      171859.64      13.523703     -69124.613      6.1564623      4.4914744      4.4155675    
    256000   3294.1351      3960.4119     -73393.191      4257.578      -69135.613      171467.33      13.554645     -68711.763      6.2341659      4.4756574      4.4266539    
    257000   3285.4207     -2147.9244     -73268.695      4246.3148     -69022.381      172040.13      13.509515     -69253.023      6.0999985      4.4869256      4.450669     
    258000   3302.3523      4137.8611     -73388.063      4268.1986     -69119.864      171307.22      13.567313     -68677.438      6.2143789      4.478779       4.4406275    
    259000   3326.6341      1635.0818     -73297.299      4299.582      -68997.717      171838.17      13.525393     -68822.349      6.1617656      4.4797262      4.4628081    
    260000   3287.6054     -649.15097     -73347.655      4249.1385     -69098.517      171803.36      13.528133     -69168.126      6.1396165      4.5128104      4.4742037    
    261000   3318.1586      2567.3626     -73276.305      4288.6277     -68987.678      171774.28      13.530423     -68712.423      6.2220655      4.4869861      4.4320861    
    262000   3299.0766      2127.9997     -73357.662      4263.9647     -69093.697      171637.65      13.541194     -68865.729      6.1543422      4.5005678      4.444962     
    263000   3296.9147     -224.36001     -73274.202      4261.1705     -69013.031      171970.37      13.514995     -69037.113      6.2356084      4.4988072      4.4750824    
    264000   3286.4547     -420.54867     -73432.984      4247.6513     -69185.333      171712.09      13.535324     -69230.405      6.1094333      4.4857007      4.4325722    
    265000   3310.7448     -1785.2977     -73318.38       4279.0456     -69039.334      172005.65      13.512223     -69230.999      6.1840674      4.4845727      4.4510106    
    266000   3291.3529      3199.2785     -73286.897      4253.9821     -69032.915      171651.3       13.540117     -68690.156      6.1685697      4.4821196      4.4329499    
    267000   3305.3291     -2247.6525     -73353.014      4272.0459     -69080.968      171983.2       13.513987     -69322.239      6.1896067      4.5094118      4.4515044    
    268000   3310.5974      959.83429     -73377.973      4278.855      -69099.118      171711.13      13.535399     -68996.249      6.1887228      4.4945024      4.4356866    
    269000   3273.1564     -211.93475     -73367.782      4230.4636     -69137.319      171810.27      13.527589     -69160.045      6.1982571      4.4931295      4.4619492    
    270000   3327.4402      2178.04       -73375.321      4300.6239     -69074.697      171626.09      13.542106     -68841.384      6.2097273      4.5152881      4.4625936    
    271000   3295.0242     -553.74998     -73364.556      4258.7272     -69105.829      171792.74      13.52897      -69165.204      6.1936487      4.4809057      4.4350283    
    272000   3292.0651     -1428.7603     -73305.227      4254.9025     -69050.324      171981.86      13.514092     -69203.691      6.1989613      4.5075449      4.45019      
    273000   3267.8949      3869.1453     -73376.545      4223.6633     -69152.881      171566.44      13.546814     -68738.56       6.176769       4.5112608      4.4356323    
    274000   3279.5939     -1480.3806     -73321.461      4238.7839     -69082.677      171973.34      13.514762     -69241.577      6.1560282      4.5200832      4.4583579    
    275000   3301.4259     -216.68671     -73351.048      4267.0012     -69084.047      171871.91      13.522738     -69107.292      6.0994695      4.5071532      4.4445935    
    276000   3278.5162     -842.59898     -73381.453      4237.391      -69144.062      171866.59      13.523156     -69234.448      6.1726456      4.5189691      4.4631327    
    277000   3381.8489      2999.2486     -73356.062      4370.9457     -68985.116      171619.82      13.542601     -68663.847      6.1584158      4.5025471      4.4441395    
    278000   3266.3623     -4882.3862     -73338.08       4221.6825     -69116.397      172079.93      13.506391     -69640.784      6.1723476      4.5238088      4.4770262    
    279000   3354.2978      3184.4946     -73315.549      4335.3367     -68980.212      171678.46      13.537975     -68638.983      6.2466335      4.5343682      4.4457494    
    280000   3309.2521     -3124.3244     -73357.238      4277.1164     -69080.122      172011.04      13.5118       -69415.552      6.1555968      4.5148576      4.4699709    
    281000   3296.5009      411.43483     -73300.498      4260.6357     -69039.862      171874.27      13.522552     -68995.726      6.2221915      4.5191937      4.4697259    
    282000   3275.0018      2011.7154     -73323.501      4232.8488     -69090.653      171703.04      13.536037     -68875.06       6.1927756      4.5036015      4.4505217    
    283000   3295.2435      32.095338     -73383.169      4259.0106     -69124.158      171713.74      13.535194     -69120.719      6.1962486      4.5169883      4.454037     
    284000   3324.4937     -367.77636     -73330.499      4296.8157     -69033.683      171838.49      13.525368     -69073.128      6.224261       4.5163786      4.4578042    
    285000   3290.8093     -4034.1214     -73333.043      4253.2795     -69079.763      172150.93      13.50082      -69513.222      6.1190997      4.527324       4.4591742    
    286000   3336.9747      2806.1717     -73357.707      4312.947      -69044.76       171574.03      13.546215     -68744.253      6.1978193      4.5091237      4.4461306    
    287000   3300.4894     -3655.1456     -73362.475      4265.7907     -69096.684      172052.89      13.508513     -69489.199      6.185115       4.5202651      4.4878402    
    288000   3272.3536      2948.1391     -73412.525      4229.426      -69183.099      171416.57      13.558659     -68867.678      6.2313132      4.5073968      4.4400964    
    289000   3378.6883     -2405.0291     -73275.394      4366.8607     -68908.533      172156.5       13.500384     -69166.958      6.1493366      4.5165854      4.4608185    
    290000   3284.7768      2212.6563     -73358.101      4245.4826     -69112.618      171627.64      13.541984     -68875.595      6.2043481      4.5205783      4.4569809    
    291000   3277.4131     -1124.4584     -73381.893      4235.9653     -69145.928      171802.72      13.528184     -69266.504      6.1910133      4.5314304      4.4661358    
    292000   3234.3548     -482.16562     -73364.577      4180.3137     -69184.264      171705.28      13.535861     -69235.937      6.2300563      4.5293266      4.4829674    
    293000   3276.5245     -3553.3035     -73310.469      4234.8168     -69075.652      171946.66      13.516859     -69456.995      6.2305462      4.5085413      4.445643     
    294000   3259.7567      4726.6693     -73318.417      4213.1449     -69105.272      171589.83      13.544968     -68599.056      6.2409438      4.5017822      4.4636427    
    295000   3316.9868     -2861.4669     -73381.254      4287.1132     -69094.141      172000.47      13.51263      -69401.331      6.2459828      4.5039366      4.4819461    
    296000   3295.8824     -841.06179     -73358.03       4259.8364     -69098.194      171775.94      13.530293     -69188.367      6.2436066      4.5276483      4.5002945    
    297000   3328.9036     -1397.5106     -73314.208      4302.5153     -69011.693      171873.6       13.522604     -69161.611      6.2265238      4.5258772      4.5023364    
    298000   3292.1257     -1788.886      -73380.626      4254.9809     -69125.645      171896.34      13.520816     -69317.574      6.2238859      4.5257032      4.4911089    
    299000   3330.4824      2072.2537     -73425.007      4304.5559     -69120.451      171562.7       13.54711      -68898.552      6.2471121      4.5133789      4.4914945    
    300000   3273.092       687.17194     -73298.818      4230.3804     -69068.438      171870.35      13.52286      -68994.723      6.2100805      4.5292443      4.4947705    
    301000   3337.3184     -1047.1726     -73340.25       4313.3912     -69026.859      171870.71      13.522832     -69139.193      6.1924089      4.5340698      4.4931877    
    302000   3304.8863      1399.0188     -73315.651      4271.4737     -69044.178      171670.14      13.538631     -68894.276      6.2331737      4.5275194      4.4834187    
    303000   3301.7884     -4108.2581     -73318.499      4267.4697     -69051.029      172147.09      13.501121     -69492.444      6.1809804      4.5244243      4.4918467    
    304000   3304.6064      3687.0695     -73406.778      4271.1118     -69135.666      171384.12      13.561226     -68741.262      6.2236626      4.5412205      4.4586275    
    305000   3336.1307     -4891.2925     -73317.964      4311.8562     -69006.108      172274.64      13.491125     -69532.046      6.2545661      4.5244214      4.5001583    
    306000   3310.358       2010.2689     -73407.26       4278.5456     -69128.714      171443.17      13.556555     -68913.603      6.2725604      4.5255095      4.4848346    
    307000   3252.4173      761.64288     -73329.004      4203.6589     -69125.345      171816.53      13.527096     -69043.667      6.2478133      4.5374148      4.4991826    
    308000   3281.1963     -153.16314     -73322.276      4240.855      -69081.421      171810.76      13.52755      -69097.846      6.2753186      4.5422278      4.5042793    
    309000   3292.9133     -3523.4308     -73354.24       4255.9989     -69098.241      171997.35      13.512876     -69476.49       6.1865213      4.5353826      4.4984831    
    310000   3207.2687      5071.0849     -73421.149      4145.3056     -69275.844      171267.42      13.570466     -68733.761      6.2887626      4.5232725      4.5092791    
    311000   3286.356      -1504.0448     -73308.699      4247.5238     -69061.175      171965.39      13.515387     -69222.608      6.1893316      4.5413328      4.5046472    
    312000   3276.7425     -2116.6179     -73268.614      4235.0985     -69033.516      171983.64      13.513953     -69260.721      6.2941702      4.5259162      4.5011262    
    313000   3312.5512     -561.08713     -73379.175      4281.3803     -69097.795      171793.35      13.528921     -69157.957      6.2322967      4.5299313      4.4838479    
    314000   3270.7945     -231.83364     -73310.864      4227.4109     -69083.453      171824.51      13.526468     -69108.316      6.2668517      4.5512293      4.5164722    
    315000   3314.2522     -1111.7811     -73373.958      4283.5788     -69090.379      171818.19      13.526966     -69209.607      6.2324744      4.5543108      4.4833913    
    316000   3318.7577     -417.72259     -73324.822      4289.402      -69035.42       171787.96      13.529346     -69080.209      6.2805348      4.5473742      4.4836397    
    317000   3320.675      -1939.9576     -73304.598      4291.8801     -69012.718      171935.53      13.517734     -69220.902      6.2267216      4.5415403      4.5022385    
    318000   3301.5805      933.13197     -73374.093      4267.2009     -69106.892      171709.98      13.53549      -69006.885      6.2782978      4.5438339      4.5023994    
    319000   3288.2348     -866.93838     -73379.651      4249.9521     -69129.699      171832.1       13.525871     -69222.677      6.2471287      4.5307519      4.4844064    
    320000   3330.1692      833.68335     -73404.584      4304.1511     -69100.433      171634.01      13.541481     -69011.124      6.2460718      4.538355       4.4984912    
    321000   3324.5948     -1615.9156     -73362.641      4296.9463     -69065.694      171963.38      13.515545     -69239.133      6.2267033      4.5201657      4.484614     
    322000   3323.6505     -1250.5584     -73324.067      4295.7258     -69028.342      171885.05      13.521704     -69162.504      6.2150886      4.5382814      4.4858893    
    323000   3324.9039     -950.39044     -73295.619      4297.3458     -68998.273      171897.29      13.520741     -69100.24       6.231274       4.5375353      4.4653844    
    324000   3271.5404      40.207792     -73371.974      4228.3749     -69143.599      171674.42      13.538294     -69139.291      6.2427062      4.5390452      4.5002078    
    325000   3295.597       898.17837     -73336.132      4259.4675     -69076.664      171742.21      13.53295      -68980.386      6.2784738      4.5368064      4.4884276    
    326000   3255.8001      1951.8256     -73316.058      4208.031      -69108.027      171668.54      13.538758     -68898.895      6.271507       4.5262941      4.4894157    
    327000   3310.8508     -371.05243     -73291.077      4279.1826     -69011.894      171965.3       13.515394     -69051.72       6.2999571      4.5177951      4.4854267    
    328000   3300.2547     -1169.8379     -73356.971      4265.4874     -69091.484      171871.1       13.522801     -69216.976      6.2465552      4.5267718      4.4796969    
    329000   3296.0374      1834.2401     -73342.774      4260.0367     -69082.738      171711.38      13.53538      -68886.155      6.2362821      4.5080833      4.4722831    
    330000   3277.4516     -476.38675     -73438.661      4236.0151     -69202.646      171710.92      13.535416     -69253.702      6.2618365      4.5279124      4.4934961    
    331000   3289.1121     -1770.5494     -73324.978      4251.086      -69073.892      171900         13.520528     -69263.857      6.2103445      4.5323399      4.5114325    
    332000   3298.2702      1803.5739     -73358.814      4262.9226     -69095.891      171649.01      13.540298     -68902.665      6.2443671      4.5164254      4.4812446    
    333000   3316.4862     -2839.7676     -73317.792      4286.4661     -69031.326      172070.28      13.507148     -69336.311      6.2187748      4.5617066      4.514885     
    334000   3321.2617      3319.6549     -73315.005      4292.6384     -69022.367      171581.4       13.545633     -68666.856      6.2887815      4.521586       4.524575     
    335000   3281.6204     -3591.888      -73335.606      4241.4031     -69094.203      172022.54      13.510897     -69479.857      6.2780046      4.5789861      4.4964686    
    336000   3281.827       1545.8791     -73294.149      4241.6701     -69052.479      171709.72      13.535511     -68886.802      6.2495274      4.5341371      4.5348027    
    337000   3264.8247     -3289.3246     -73385.055      4219.6952     -69165.36       171989.62      13.513483     -69518.46       6.2552927      4.5794562      4.5235502    
    338000   3318.0712      3458.8083     -73379.593      4288.5147     -69091.078      171444.15      13.556477     -68720.961      6.3073482      4.5578246      4.5288035    
    339000   3309.0208     -859.19809     -73325.449      4276.8174     -69048.631      171944.77      13.517007     -69140.84       6.2308703      4.5540145      4.4825156    
    340000   3300.7467      2044.6354     -73333.414      4266.1233     -69067.291      171681.92      13.537703     -68848.197      6.2818701      4.5661393      4.5023124    
    341000   3265.2575     -3819.8626     -73389.595      4220.2545     -69169.34       171865.84      13.523216     -69579.098      6.2356949      4.5490954      4.4905894    
    342000   3326.1292     -1420.0755     -73383.352      4298.9294     -69084.423      171806.72      13.527868     -69236.702      6.2606681      4.5552192      4.5052787    
    343000   3289.8349     -2890.1062     -73366.472      4252.0201     -69114.452      172009.52      13.511919     -69424.733      6.2804174      4.5443052      4.5419281    
    344000   3345.8445     -1146.6417     -73364.323      4324.411      -69039.912      171832.37      13.525849     -69162.888      6.2586428      4.5773496      4.5171618    
    345000   3295.117      -599.06231     -73373.381      4258.847      -69114.534      171783.46      13.5297       -69178.765      6.2938881      4.5582502      4.5379173    
    346000   3301.3757     -13.342755     -73347.028      4266.9362     -69080.091      171775.8       13.530304     -69081.522      6.310235       4.5870889      4.5068035    
    347000   3307.9706      3174.366      -73317.756      4275.46       -69042.296      171559.33      13.547376     -68702.388      6.3319869      4.5703114      4.5195643    
    348000   3289.8884     -2942.0061     -73299.639      4252.0893     -69047.55       172072.52      13.506972     -69363.519      6.2653783      4.5803665      4.5041042    
    349000   3254.8558      3142.8737     -73373.489      4206.8106     -69166.679      171495.99      13.552379     -68830.267      6.3017765      4.5597452      4.5206098    
    350000   3272.3866     -1503.5182     -73369.518      4229.4687     -69140.049      171887.5       13.521511     -69301.352      6.3013132      4.5597545      4.509108     
    351000   3337.0122      3693.188      -73323.561      4312.9955     -69010.566      171617.52      13.542783     -68614.969      6.3006019      4.5756519      4.5206388    
    352000   3299.1368     -4966.4705     -73357.249      4264.0425     -69093.206      172111.25      13.503933     -69626.721      6.3100636      4.5805603      4.5226547    
    353000   3271.2846      1358.92       -73280.202      4228.0444     -69052.157      171767.12      13.530987     -68906.469      6.2891747      4.5696309      4.5243502    
    354000   3271.6702      2893.4504     -73386.154      4228.5428     -69157.611      171564.68      13.546953     -68847.774      6.3098007      4.5738396      4.5152025    
    355000   3262.3177      771.53442     -73322.611      4216.4549     -69106.157      171790.93      13.529112     -69023.43       6.3355544      4.5829116      4.5152177    
    356000   3295.4856     -2498.1638     -73387.254      4259.3235     -69127.93       171866.98      13.523125     -69395.911      6.2769645      4.5863702      4.5443518    
    357000   3335.4835      3856.6216     -73376.232      4311.0197     -69065.213      171529.23      13.549753     -68652.322      6.4208022      4.5667205      4.5403346    
    358000   3330.8035     -3467.7869     -73411.595      4304.971      -69106.624      171885.36      13.52168      -69478.657      6.2314384      4.5798335      4.5064052    
    359000   3296.9183     -1988.8082     -73375.898      4261.1753     -69114.722      171825.41      13.526397     -69328.012      6.2792993      4.5684431      4.509752     
    360000   3283.2514      1061.0178     -73402.141      4243.5111     -69158.63       171577.49      13.545942     -69045.005      6.3759892      4.5770366      4.5059407    
    361000   3319.6377      254.6414      -73429.332      4290.5395     -69138.792      171628.93      13.541883     -69111.515      6.2826047      4.574466       4.5268293    
    362000   3251.8946      2662.1307     -73382.764      4202.9833     -69179.781      171400.95      13.559894     -68894.986      6.3823453      4.5718815      4.5345732    
    363000   3322.297      -933.24751     -73309.073      4293.9765     -69015.096      171942.16      13.517213     -69115.25       6.2734678      4.5878502      4.5348139    
    364000   3302.0028     -739.9374      -73394.463      4267.7468     -69126.717      171700.42      13.536244     -69206.013      6.324617       4.5542374      4.5343371    
    365000   3316.0477      1159.5182     -73354.797      4285.8994     -69068.898      171722         13.534543     -68944.62       6.2850879      4.571369       4.5262172    
    366000   3317.1164     -2134.1779     -73355.224      4287.2807     -69067.944      171920.18      13.518941     -69296.95       6.3201296      4.5828206      4.5337146    
    367000   3314.16        740.32856     -73377.732      4283.4596     -69094.272      171687.93      13.537228     -69014.939      6.2662036      4.5760331      4.529784     
    368000   3319.7151     -2215.5473     -73312.993      4290.6395     -69022.354      172034.43      13.509962     -69260.249      6.3093035      4.5922245      4.5346288    
    369000   3277.7686      2097.3242     -73316.226      4236.4248     -69079.801      171592.25      13.544777     -68855.179      6.2597713      4.5768587      4.5496742    
    370000   3320.0802      1001.0718     -73356.157      4291.1114     -69065.045      171691.63      13.536937     -68957.769      6.3335917      4.586522       4.5255344    
    371000   3315.1328     -152.74791     -73427.668      4284.7169     -69142.951      171674.48      13.538289     -69159.318      6.2490396      4.5680154      4.556333     
    372000   3305.3547     -1461.4515     -73350.531      4272.0791     -69078.452      171816.08      13.527132     -69235.177      6.2823519      4.5717049      4.5103077    
    373000   3285.3258     -1591.5541     -73432.772      4246.1922     -69186.58       171670.77      13.538582     -69357.113      6.3419969      4.5581953      4.5349918    
    374000   3330.9797      4.1048591     -73355.384      4305.1986     -69050.185      171738.74      13.533224     -69049.745      6.2987721      4.5756293      4.5390562    
    375000   3272.4339     -1286.6372     -73381.615      4229.5298     -69152.085      171671.73      13.538506     -69289.947      6.3577109      4.5457043      4.5244781    
    376000   3294.651      -2175.9559     -73309.383      4258.2448     -69051.138      171981.02      13.514159     -69284.71       6.2177119      4.5858325      4.5660645    
    377000   3256.3714      4393.5034     -73395.892      4208.7694     -69187.123      171319.56      13.566336     -68717.329      6.3633224      4.5775654      4.5399103    
    378000   3369.5599     -2972.1878     -73312.585      4355.0625     -68957.522      172105.66      13.504372     -69276.794      6.2597699      4.5569062      4.5772733    
    379000   3275.301       300.14657     -73346.832      4233.2355     -69113.597      171770.38      13.530731     -69081.418      6.3079749      4.5896335      4.5324102    
    380000   3327.0171      2961.1345     -73428.111      4300.077      -69128.034      171474.63      13.554068     -68811.116      6.2979985      4.5607972      4.5266915    
    381000   3277.602      -2731.3145     -73362.73       4236.2094     -69126.52       171939.1       13.517453     -69419.634      6.2956958      4.5671584      4.5375059    
    382000   3294.5735      434.21341     -73352.718      4258.1447     -69094.573      171702.83      13.536054     -69048.039      6.3654243      4.5844049      4.5547017    
    383000   3288.5472     -224.74646     -73437.1        4250.3558     -69186.744      171656.14      13.539735     -69210.823      6.2771054      4.5493321      4.5555881    
    384000   3304.5775     -2569.735      -73358.799      4271.0745     -69087.724      171963.3       13.515551     -69363.537      6.3305694      4.5922813      4.5599008    
    385000   3313.8297      5173.9387     -73331.613      4283.0327     -69048.58       171368.16      13.562489     -68495.178      6.3464704      4.5724001      4.5670005    
    386000   3282.4244     -2763.0619     -73392.76       4242.4422     -69150.318      171884.85      13.52172      -69446.745      6.3424784      4.5895994      4.5329533    
    387000   3306.0704     -1737.7321     -73371.554      4273.004      -69098.55       171841.85      13.525103     -69284.93       6.3217029      4.5762012      4.5471976    
    388000   3319.3631      2742.187      -73400.204      4290.1845     -69110.02       171549.48      13.548154     -68816.406      6.3564809      4.5638471      4.5518143    
    389000   3318.2879     -1030.9961     -73381.612      4288.7949     -69092.817      171736.97      13.533363     -69203.329      6.4146404      4.5965654      4.5488863    
    390000   3307.4223     -3940.9925     -73323.59       4274.7514     -69048.838      172048.34      13.508871     -69472.038      6.2765729      4.6135257      4.5603577    
    391000   3326.7398      3830.0448     -73309.429      4299.7186     -69009.71       171568.38      13.546662     -68599.572      6.4232813      4.5727274      4.5625927    
    392000   3270.1199      332.88725     -73349.817      4226.539      -69123.278      171695.81      13.536608     -69087.604      6.2483706      4.573546       4.5460303    
    393000   3295.2967     -690.29652     -73304.807      4259.0793     -69045.727      171950.69      13.516542     -69119.812      6.4061991      4.5983433      4.5599703    
    394000   3301.7911     -927.6963      -73432.108      4267.4732     -69164.635      171616.81      13.542839     -69264.005      6.3606637      4.5707352      4.5671072    
    395000   3322.3827     -723.51164     -73366.589      4294.0872     -69072.502      171821.03      13.526742     -69150.093      6.3431153      4.5994843      4.5410136    
    396000   3302.5472      572.75064     -73366.604      4268.4504     -69098.154      171677.05      13.538086     -69036.782      6.3737873      4.5684977      4.5740377    
    397000   3292.9372      1019.31       -73328.249      4256.0298     -69072.219      171764.71      13.531177     -68962.941      6.3244623      4.5942816      4.566477     
    398000   3246.6791      1645.0056     -73335.783      4196.2424     -69139.54       171636.86      13.541257     -68963.315      6.376945       4.5939954      4.5490133    
    399000   3286.1529      2194.3054     -73381.381      4247.2612     -69134.119      171599.71      13.544188     -68899.1        6.3787127      4.5972072      4.550215     
    400000   3359.0487     -1964.2745     -73413.264      4341.477      -69071.787      171843.27      13.524991     -69282.468      6.386422       4.6166252      4.5785008    
    401000   3303.1458      3411.6101     -73400.363      4269.2241     -69131.139      171447.34      13.556225     -68766.066      6.4008207      4.5912947      4.5642137    
    402000   3288.6375     -1175.3945     -73394.533      4250.4725     -69144.06       171756.88      13.531794     -69270.065      6.3791622      4.6086789      4.5660868    
    403000   3239.4218      898.50341     -73390.852      4186.8625     -69203.99       171695.21      13.536655     -69107.703      6.4280272      4.6010397      4.5742754    
    404000   3335.5066      920.34507     -73385.274      4311.0496     -69074.224      171724.09      13.534378     -68975.58       6.3882065      4.6152457      4.568048     
    405000   3270.9898      2107.2033     -73385.429      4227.6634     -69157.766      171644.37      13.540664     -68932.017      6.4359377      4.6042153      4.5789446    
    406000   3302.7447     -1720.1213     -73401.366      4268.7057     -69132.66       171842.02      13.52509      -69317.153      6.3559388      4.6113339      4.5622982    
    407000   3263.1802     -481.314       -73373.972      4217.5697     -69156.402      171683.95      13.537542     -69207.978      6.4496334      4.6240969      4.5681142    
    408000   3328.3449      4201.0567     -73373.652      4301.7933     -69071.859      171392.33      13.560576     -68622.452      6.3944566      4.594559       4.5584405    
    409000   3252.2395     -6312.7094     -73332.619      4203.4292     -69129.19       172278.22      13.490845     -69807.98       6.3654295      4.6448168      4.5849339    
    410000   3298.8996      2167.2537     -73386.8        4263.7359     -69123.064      171581.23      13.545647     -68890.967      6.3171927      4.6073267      4.5759503    
    411000   3275.6099     -1823.3863     -73381.299      4233.6347     -69147.664      171896.63      13.520793     -69343.294      6.400678       4.6007947      4.5862651    
    412000   3292.2644      547.83333     -73330.868      4255.1602     -69075.708      171671.99      13.538485     -69017.008      6.4148794      4.6224693      4.5872501    
    413000   3307.834      -206.74727     -73394.891      4275.2835     -69119.607      171724.56      13.534341     -69141.767      6.3921876      4.623277       4.5696833    
    414000   3301.7572     -301.48236     -73337.424      4267.4294     -69069.995      171735.34      13.533492     -69102.31       6.3940223      4.6351084      4.5635527    
    415000   3325.6566     -553.09056     -73440.742      4298.3187     -69142.423      171618.9       13.542673     -69201.668      6.3712728      4.6174987      4.5796649    
    416000   3303.6696     -1719.3266     -73351.267      4269.9011     -69081.366      171863.09      13.523432     -69265.796      6.4014195      4.6390258      4.5945567    
    417000   3306.6464      889.58528     -73424.381      4273.7485     -69150.633      171597.67      13.544349     -69055.356      6.3586502      4.6163004      4.5835334    
    418000   3353.7842     -2522.9655     -73373.16       4334.6728     -69038.487      171971.15      13.514934     -69309.292      6.3689476      4.6292612      4.5792199    
    419000   3342.2291      4230.5969     -73372.846      4319.7382     -69053.108      171455.78      13.555558     -68600.373      6.4209836      4.6197398      4.591593     
    420000   3272.8314     -2231.1655     -73406.553      4230.0435     -69176.509      171878.6       13.522211     -69415.865      6.3616761      4.6442434      4.6098811    
    421000   3313.8354      1915.0562     -73392.677      4283.0401     -69109.637      171527.32      13.549904     -68904.613      6.4382556      4.6242604      4.5989611    
    422000   3286.279       691.87352     -73429.984      4247.4242     -69182.56       171586.57      13.545225     -69108.463      6.3860542      4.6480413      4.6162361    
[...]
    947000   3276.4132      2883.6841     -73473.756      4234.673      -69239.083      171353.25      13.563669     -68930.672      6.7507867      4.8777988      4.8814699    
    948000   3315.9447     -5575.2584     -73387.457      4285.7664     -69101.691      172003.17      13.512418     -69700.228      6.7100795      4.9091777      4.8790756    
    949000   3277.6142      755.8652      -73479.201      4236.2253     -69242.976      171390.28      13.560739     -69162.119      6.7189045      4.8732627      4.9074584    
    950000   3323.4704     -2396.626      -73380.327      4295.4931     -69084.834      171836.65      13.525513     -69341.877      6.7061828      4.8949061      4.8903972    
    951000   3341.5484      463.95439     -73355.89       4318.8584     -69037.032      171656.2       13.539731     -68987.324      6.6379049      4.8423719      4.8936983    
    952000   3277.4051      2571.7753     -73426.009      4235.955      -69190.054      171417.63      13.558575     -68914.899      6.7568777      4.8794823      4.8988179    
    953000   3321.3974     -881.23406     -73373          4292.8138     -69080.186      171776.5       13.530248     -69174.667      6.6479678      4.8845567      4.9193786    
    954000   3292.2465      559.61589     -73422.084      4255.137      -69166.947      171598.78      13.544262     -69107.011      6.7133393      4.8974348      4.891944     
    955000   3267.208      -922.21825     -73478.286      4222.7755     -69255.51       171640.61      13.540961     -69354.307      6.6575291      4.9033745      4.8788447    
    956000   3308.2669      4992.6733     -73461.582      4275.8429     -69185.739      171286.64      13.568944     -68651.979      6.770113       4.8807365      4.8956425    
    957000   3314.4635     -3901.891      -73410.521      4283.8519     -69126.669      171973.93      13.514716     -69545.489      6.6734319      4.8899928      4.8768342    
    958000   3313.0021      5696.6044     -73404.57       4281.9631     -69122.607      171244.39      13.572291     -68513.74       6.7142881      4.8753767      4.8874898    
    959000   3288.842      -1953.732      -73371.367      4250.7368     -69120.63       171822.47      13.526629     -69330.155      6.7004388      4.8989338      4.8918485    
    960000   3239.4354      1150.4256     -73458.314      4186.8801     -69271.434      171448.67      13.55612      -69148.327      6.72804        4.8747734      4.8886271    
    961000   3313.2578     -2842.6801     -73422.03       4282.2936     -69139.737      171845.45      13.52482      -69444.636      6.7148031      4.8784005      4.8754006    
    962000   3309.2881      3458.1284     -73381.423      4277.1628     -69104.26       171409.32      13.559232     -68734.291      6.7393172      4.8691379      4.9053343    
    963000   3237.3554     -2288.6677     -73443.31       4184.1918     -69259.119      171693.08      13.536823     -69504.378      6.7406857      4.8884162      4.9044352    
    964000   3305.5167      2947.0392     -73411.989      4272.2884     -69139.7        171460.22      13.555207     -68824.317      6.7260824      4.8898519      4.9188549    
    965000   3313.1755     -3735.9316     -73471.565      4282.1872     -69189.378      171806.37      13.527896     -69589.994      6.6998502      4.8706499      4.8868248    
    966000   3331.5808      974.47971     -73446.463      4305.9755     -69140.488      171521.58      13.550357     -69036.165      6.7471167      4.8763863      4.9038931    
    967000   3253.6384      3608.9753     -73483.649      4205.2372     -69278.412      171338.19      13.564861     -68892.465      6.7285839      4.8762765      4.8621049    
    968000   3305.0302     -1778.3739     -73383.23       4271.6596     -69111.571      171823.39      13.526556     -69302.29       6.6882193      4.878528       4.8697857    
    969000   3333.0259      1167.3953     -73486.073      4307.8432     -69178.229      171502.86      13.551836     -69053.267      6.7580855      4.8733213      4.8958177    
    970000   3272.9925      1148.2303     -73328.856      4230.2518     -69098.604      171694.52      13.536709     -68975.556      6.6733484      4.8957653      4.8736953    
    971000   3249.4822      442.24872     -73422.743      4199.8653     -69222.878      171633.26      13.54154      -69175.502      6.780722       4.8775429      4.9138292    
    972000   3318.9413      1123.5181     -73455.291      4289.6394     -69165.652      171503.89      13.551755     -69045.385      6.6788862      4.8577714      4.8699151    
    973000   3239.5052     -422.4406      -73490.277      4186.9704     -69303.306      171539.72      13.548925     -69348.535      6.8016485      4.8762802      4.9017494    
    974000   3263.3318      2860.0073     -73424.012      4217.7656     -69206.247      171380.4       13.56152      -68900.319      6.7188987      4.8781658      4.8895055    
    975000   3305.6203     -1.8554091     -73442.579      4272.4223     -69170.157      171629.18      13.541862     -69170.356      6.7678919      4.8808453      4.9160828    
    976000   3350.3123      199.00278     -73394.716      4330.1855     -69064.531      171745.6       13.532683     -69043.199      6.6704874      4.8849331      4.8626191    
    977000   3324.8159      983.09325     -73453.021      4297.2321     -69155.789      171616.04      13.5429       -69050.485      6.7173519      4.8906267      4.8871266    
    978000   3285.6982     -110.95002     -73413.663      4246.6735     -69166.989      171706.01      13.535803     -69178.88       6.7507925      4.8736406      4.877232     
    979000   3326.2405      2242.7004     -73451.369      4299.0733     -69152.296      171402.37      13.559782     -68912.37       6.708765       4.8838726      4.8862693    
    980000   3306.1236     -4534.4097     -73340.498      4273.0728     -69067.426      172108.04      13.504185     -69554.518      6.7399309      4.8930404      4.9053505    
    981000   3305.9313      494.16004     -73424.772      4272.8243     -69151.948      171541.13      13.548813     -69099.04       6.7014546      4.8861643      4.889752     
    982000   3282.1135     -2822.93       -73327.816      4242.0404     -69085.775      171986.49      13.513729     -69388.804      6.7583516      4.87703        4.8882565    
    983000   3274.4757      1898.8104     -73471.689      4232.1688     -69239.52       171434.86      13.557212     -69036.345      6.6752303      4.8822475      4.8837704    
    984000   3319.9341      1124.8676     -73460.905      4290.9225     -69169.983      171518.02      13.550638     -69049.562      6.8300294      4.8926089      4.9082164    
    985000   3302.9615     -2840.7364     -73313.779      4268.9859     -69044.793      171953.7       13.516306     -69349.675      6.6261382      4.8907868      4.8878958    
    986000   3284.6956      3461.3518     -73445.443      4245.3777     -69200.065      171389.84      13.560773     -68829.794      6.7783229      4.8761632      4.8891425    
    987000   3303.6995     -15.16538      -73393.965      4269.9397     -69124.025      171731.08      13.533827     -69125.651      6.6337488      4.8683661      4.883179     
    988000   3302.2125      485.55765     -73420.347      4268.0178     -69152.329      171644.51      13.540653     -69100.311      6.7090557      4.8693909      4.8900176    
    989000   3313.8235     -1023.8983     -73493.702      4283.0247     -69210.677      171700.86      13.536209     -69320.405      6.6829572      4.8684331      4.8571615    
    990000   3295.9572      16.568892     -73422.57       4259.933      -69162.637      171671.62      13.538514     -69160.862      6.6900073      4.8867122      4.8862729    
    991000   3317.1085      2531.4026     -73470.079      4287.2705     -69182.808      171370.22      13.562326     -68912.047      6.7499997      4.8836345      4.884115     
    992000   3276.2969     -2532.6455     -73416.559      4234.5226     -69182.036      171797.26      13.528613     -69453.605      6.6589482      4.8988502      4.8717305    
    993000   3311.3936      4784.0873     -73454.43       4279.8842     -69174.546      171235.77      13.572975     -68663.237      6.7818993      4.8776992      4.889683     
    994000   3325.5967     -913.68908     -73374.953      4298.2413     -69076.712      171705.92      13.53581      -69174.632      6.7038239      4.9173692      4.8879606    
    995000   3326.7802     -4213.1371     -73382.578      4299.7709     -69082.807      172015.37      13.51146      -69535.145      6.7133793      4.887062       4.9102888    
    996000   3317.8777      3921.8434     -73508.383      4288.2647     -69220.118      171290.03      13.568675     -68800.83       6.7259797      4.8668062      4.866987     
    997000   3249.2035     -94.30589      -73429.836      4199.5052     -69230.331      171660.89      13.539361     -69240.435      6.7255829      4.8863726      4.9086236    
    998000   3297.3132     -740.03385     -73381.824      4261.6857     -69120.139      171746.13      13.532641     -69199.467      6.6759631      4.8808668      4.8926475    
    999000   3264.1904      2204.3941     -73398.602      4218.8753     -69179.727      171446.35      13.556303     -68943.838      6.7921993      4.9037916      4.9058556    
   1000000   3348.0261     -1305.7296     -73365.509      4327.2306     -69038.278      171817.43      13.527026     -69178.305      6.6613022      4.8417751      4.8748326    
   1001000   3309.1705     -2400.9823     -73397.651      4277.0108     -69120.64       171896.73      13.520785     -69378.241      6.7402807      4.8946091      4.8754935    
   1002000   3323.4249      1054.7043     -73499.977      4295.4343     -69204.543      171484.86      13.553259     -69091.655      6.710316       4.8640865      4.8639822    
   1003000   3309.2003      567.64664     -73375.999      4277.0494     -69098.95       171692.64      13.536857     -69038.119      6.7416762      4.8792257      4.8911356    
   1004000   3250.6118     -3094.9559     -73394.813      4201.3254     -69193.487      171799.81      13.528413     -69525.356      6.6649481      4.8786651      4.8920029    
   1005000   3294.6114      6117.1014     -73429.554      4258.1937     -69171.36       171043.61      13.588223     -68518.316      6.8013193      4.87202        4.8699474    
   1006000   3351.5393     -2050.1751     -73451.125      4331.7714     -69119.354      171793.77      13.528889     -69339.185      6.6962861      4.8701141      4.8707978    
   1007000   3320.6864      1768.9848     -73426.749      4291.8949     -69134.854      171476.37      13.55393      -68945.524      6.6984216      4.8621929      4.8999242    
   1008000   3274.4155     -2095.124      -73350.906      4232.091      -69118.815      171901.83      13.520384     -69343.606      6.7376901      4.8978466      4.9044324    
   1009000   3252.3861     -351.99333     -73427.341      4203.6186     -69223.722      171552.7       13.5479       -69261.412      6.7030332      4.8804518      4.8985535    
   1010000   3327.1856     -470.03144     -73381.801      4300.2948     -69081.506      171746.51      13.532611     -69131.892      6.7441063      4.902284       4.9059088    
   1011000   3271.541      -195.84502     -73462.604      4228.3758     -69234.228      171525.37      13.550058     -69255.195      6.7066327      4.8757191      4.8724768    
   1012000   3298.3234     -3249.8281     -73405.832      4262.9913     -69142.841      171813.09      13.527367     -69491.343      6.791048       4.8858202      4.9032272    
   1013000   3307.2623      2211.2031     -73496.255      4274.5446     -69221.71       171334.64      13.565143     -68985.247      6.685786       4.8547376      4.8650572    
   1014000   3286.808      -530.56115     -73380.396      4248.108      -69132.288      171701.36      13.536169     -69189.147      6.7390043      4.8974052      4.898749     
   1015000   3328.2785      53.42524      -73404.03       4301.7074     -69102.323      171665.48      13.538999     -69096.599      6.6896241      4.8982538      4.901516     
   1016000   3282.4976     -1397.6422     -73421.846      4242.5368     -69179.309      171723.22      13.534446     -69329.11       6.714385       4.8796658      4.8836923    
   1017000   3346.6941      6856.1067     -73431.391      4325.5091     -69105.882      171201.81      13.575667     -68373.267      6.758803       4.8770884      4.8905687    
   1018000   3306.352      -3603.8668     -73388.326      4273.368      -69114.958      172095.47      13.505171     -69502.062      6.6519945      4.8924599      4.9076248    
   1019000   3351.2074      3719.8893     -73376.075      4331.3424     -69044.733      171546.41      13.548396     -68646.441      6.7279849      4.8723758      4.8767736    
   1020000   3338.1973     -1290.1703     -73473.843      4314.5272     -69159.315      171706.87      13.535735     -69297.584      6.6752519      4.871792       4.9037756    
   1021000   3307.6679      239.32056     -73409.226      4275.0688     -69134.157      171607.06      13.543608     -69108.524      6.7577992      4.8825588      4.9242377    
   1022000   3305.792      -386.58286     -73413.996      4272.6442     -69141.352      171669.64      13.538671     -69182.774      6.6834734      4.8608432      4.8936915    
   1023000   3343.8352      769.66295     -73412.415      4321.814      -69090.601      171605.64      13.54372      -69008.164      6.7204915      4.8935737      4.8727981    
   1024000   3322.5857     -1153.6937     -73427.535      4294.3496     -69133.185      171812.24      13.527434     -69256.904      6.7102718      4.8872771      4.8726633    
   1025000   3276.2146     -670.57767     -73470.087      4234.4163     -69235.671      171608.91      13.543462     -69307.496      6.6884377      4.8839679      4.8952167    
   1026000   3277.0953      1037.0949     -73365.269      4235.5546     -69129.715      171603.7       13.543874     -69018.635      6.7529916      4.8836008      4.8960362    
   1027000   3266.4987     -627.11232     -73417.957      4221.8587     -69196.098      171662.88      13.539204     -69263.289      6.6933485      4.8741481      4.8983049    
   1028000   3300.5669      392.17959     -73485.536      4265.8909     -69219.645      171541.97      13.548747     -69177.655      6.7822376      4.8637741      4.8931435    
   1029000   3332.0113     -245.2857      -73424.313      4306.532      -69117.781      171665.8       13.538974     -69144.062      6.6938469      4.9006366      4.8911095    
   1030000   3270.1554     -4354.4197     -73392.294      4226.5849     -69165.71       171988.11      13.513601     -69633.141      6.7279092      4.8812955      4.883589     
   1031000   3354.5179      1542.2197     -73398.875      4335.6211     -69063.254      171557.08      13.547554     -68898.117      6.742908       4.8751159      4.8928794    
   1032000   3265.7748      2192.5994     -73377.81       4220.9231     -69156.887      171581.46      13.545629     -68922.075      6.7298325      4.8749597      4.8941912    
   1033000   3305.4133      1764.3733     -73424.944      4272.1548     -69152.789      171507.17      13.551496     -68963.92       6.7437057      4.8861595      4.873303     
   1034000   3292.5825     -1076.7033     -73377.953      4255.5714     -69122.381      171714.57      13.535128     -69237.778      6.6931286      4.8891853      4.9096466    
   1035000   3287.7932      576.88243     -73465.991      4249.3813     -69216.61       171477.08      13.553874     -69154.868      6.7792896      4.8821322      4.8709784    
   1036000   3291.3452     -600.59033     -73387.227      4253.9722     -69133.255      171785.54      13.529537     -69197.65       6.6991415      4.8850911      4.9121732    
   1037000   3302.447       679.86424     -73411.009      4268.3209     -69142.688      171593.58      13.544672     -69069.875      6.7470659      4.8741132      4.9028525    
   1038000   3266.9176     -5034.1968     -73410.808      4222.4001     -69188.408      172038.01      13.509682     -69728.968      6.6941655      4.9113472      4.8983485    
   1039000   3311.7307      1081.2082     -73403.332      4280.3198     -69123.012      171593.75      13.544658     -69007.215      6.6856166      4.8748162      4.9056677    
   1040000   3262.9634     -284.73696     -73429.97       4217.2895     -69212.681      171633.19      13.541546     -69243.183      6.7693153      4.8951503      4.8782721    
   1041000   3355.6341      3438.7614     -73433.45       4337.0637     -69096.386      171482.54      13.553443     -68728.332      6.6202695      4.8768936      4.8774674    
   1042000   3285.9051     -2573.7397     -73366.482      4246.941      -69119.541      171797.53      13.528592     -69395.517      6.7748758      4.8883612      4.8617224    
   1043000   3345.9606     -1404.0757     -73435.62       4324.561      -69111.059      171777.69      13.530155     -69261.597      6.5988349      4.8779301      4.8923634    
   1044000   3337.4613     -50.672593     -73457.109      4313.5759     -69143.533      171614.67      13.543008     -69148.961      6.7389426      4.8774507      4.90039      
   1045000   3271.3943      2747.4126     -73384.496      4228.1862     -69156.31       171496.55      13.552335     -68862.228      6.6739058      4.8957558      4.8777138    
   1046000   3296.7922      466.03154     -73429.92       4261.0123     -69168.908      171572.91      13.546304     -69119.002      6.7289051      4.8730434      4.8867869    
   1047000   3313.8531     -2001.5507     -73463.371      4283.0629     -69180.308      171778.13      13.53012      -69394.905      6.6684525      4.9170478      4.8922986    
   1048000   3310.3894      3496.7645     -73421.301      4278.5862     -69142.715      171344.42      13.564368     -68768.754      6.7564456      4.888246       4.8851097    
   1049000   3295.8011     -1054.2321     -73381.738      4259.7313     -69122.007      171674.15      13.538315     -69234.968      6.6635599      4.9038856      4.9002555    
   1050000   3302.8306     -2744.4244     -73454.335      4268.8167     -69185.518      171834.89      13.525651     -69479.86       6.7405605      4.8976585      4.9091833    
   1051000   3341.1407      453.63344     -73438.538      4318.3315     -69120.206      171666.51      13.538918     -69071.601      6.7536394      4.8912586      4.8570564    
   1052000   3285.7544     -2002.172      -73442.374      4246.7462     -69195.628      171706.28      13.535782     -69410.202      6.682007       4.8911926      4.8860202    
   1053000   3268.7446      5269.0922     -73403.208      4224.7615     -69178.446      171224.18      13.573893     -68615.34       6.7893798      4.8576216      4.8628445    
   1054000   3267.151      -6136.643      -73394.157      4222.7019     -69171.455      172153.78      13.500597     -69830.837      6.65916        4.8817472      4.8830047    
   1055000   3302.4711      5308.9281     -73390.231      4268.352      -69121.879      171329.98      13.565511     -68554.165      6.7731641      4.8728924      4.8870832    
   1056000   3306.8096     -2286.9458     -73378.452      4273.9595     -69104.492      171877.04      13.522334     -69349.829      6.7433367      4.8841361      4.914028     
   1057000   3265.5432     -78.979416     -73452.209      4220.6237     -69231.586      171568.77      13.546631     -69240.043      6.679533       4.8644911      4.8746975    
   1058000   3276.0493     -5.1252309     -73416.918      4234.2026     -69182.716      171587.55      13.545148     -69183.265      6.7390297      4.8908719      4.9172021    
