# LAMMPS data file written by OVITO Basic 3.9.1

10000 atoms
2 atom types

0.0372003749 68.6127996251 xlo xhi
-0.0014131358 31.6514131358 ylo yhi
-0.015615614 79.140615614 zlo zhi

Masses

1 183.84  # W
2 95.94  # Mo

Atoms  # atomic

2 2 1.52508 1.70925 2.12482
223 1 3.44448 3.12038 3.32232
621 2 0.181606 3.2257 9.89158
301 1 0.441539 15.5788 3.445
309 2 13.5873 15.9711 3.14685
4 1 4.87552 1.365 1.50433
225 1 6.73063 2.83649 3.02203
6 2 8.0616 1.66865 1.40371
49 1 13.2421 6.46524 -0.0872948
8 2 12.2394 1.71911 1.29898
227 2 10.2853 3.03912 2.71168
7373 2 0.455395 6.37217 6.6653
911 1 17.2463 15.6504 12.6051
10 1 15.4418 1.88472 1.82342
229 2 13.3407 3.16348 3.13186
471 2 17.0116 9.76787 6.34331
211 2 17.3557 0.148096 3.1881
4803 2 3.08505 3.01439 0.276555
421 2 0.435128 3.46195 6.53881
23 1 1.98069 5.20895 2.28664
243 1 3.92156 6.37973 3.68143
24 1 5.03348 4.48631 1.9558
245 1 6.79591 6.34584 3.31748
26 2 8.74126 4.63969 1.47293
44 1 5.21445 8.05201 1.76373
46 1 8.59001 8.02124 1.68096
281 1 -0.0350756 12.811 2.9312
28 2 11.9777 4.83179 1.46836
247 1 10.3082 6.52377 3.08935
48 1 11.6601 8.18369 1.56823
30 1 15.2399 4.93694 1.66102
249 2 13.2815 6.63559 3.11167
65 2 6.99004 9.49785 0.0766415
7933 2 0.378154 9.26521 0.10228
51 1 16.9338 6.4281 0.32429
42 2 2.26696 7.7438 1.85195
62 1 1.88376 11.1474 1.48798
263 1 3.29519 9.71952 3.30538
63 1 3.43761 9.28352 0.227312
64 2 5.07123 11.3059 1.50248
265 2 6.86548 9.24805 3.52628
66 2 8.10997 11.2242 1.75402
803 1 3.3779 0.278668 13.0677
68 2 11.7655 11.3483 1.54967
267 1 10.4894 9.56541 3.49463
601 1 0.28961 0.0574284 9.46574
50 1 15.018 8.21688 1.55355
70 2 15.4027 10.9161 2.10032
269 1 13.31 9.65308 3.02838
903 1 1.32235 14.2704 14.3142
631 2 16.8833 3.2056 9.3565
809 1 13.136 0.513096 12.8264
43 1 3.31013 6.05952 0.275785
82 2 1.60764 14.1427 1.65139
283 1 3.40355 12.7866 3.40724
707 2 9.92822 16.0377 9.67617
5460 1 0.300526 3.3655 12.857
611 2 17.0209 0.358946 9.57061
403 1 3.49017 -0.0842408 6.27568
285 1 6.43319 12.7419 3.14448
84 2 4.99533 14.2365 1.85323
86 1 8.50802 14.186 1.30795
291 2 17.1026 12.7754 3.35395
811 2 17.1703 -0.141208 12.8176
305 1 6.90636 15.9077 3.36375
88 1 12.0694 14.6321 1.54392
287 2 10.2912 12.7689 3.29393
883 1 3.22622 13.0723 12.9104
890 2 14.6731 14.1534 14.4796
90 1 15.5661 14.2289 1.9516
289 2 13.4057 12.8628 2.96057
8631 1 0.235573 9.64166 3.26676
45 1 6.64482 5.7433 0.34166
311 1 16.9984 15.6787 3.53677
202 2 1.64649 1.75433 5.14453
423 1 3.608 3.08804 6.40651
204 1 5.33267 1.52167 4.77353
425 2 6.88544 2.98945 6.40556
603 2 5.36411 1.37893 7.89573
406 1 8.5721 1.84016 7.92481
206 2 8.60171 1.44071 4.61894
208 1 11.8531 1.64817 4.99447
427 2 10.1588 3.31565 6.2151
429 1 13.4548 3.36983 6.7555
210 2 15.1361 1.81918 4.76568
222 1 1.9492 4.73375 5.16422
443 1 3.60405 6.37814 6.51177
242 2 1.44955 7.81098 4.7672
224 1 5.37793 4.42414 4.88328
445 2 6.35855 6.27409 6.20935
226 1 8.39174 4.90486 4.79473
228 2 11.5173 4.93601 4.79569
447 1 9.93873 6.61474 6.32185
248 1 12.0801 7.84788 4.83734
246 2 8.74705 7.90953 4.96512
428 1 11.7546 5.01976 7.7066
448 1 11.9303 8.23299 8.33512
230 2 15.1735 4.80876 4.82369
449 1 13.2796 6.51112 6.36519
250 1 15.245 8.07276 4.82102
651 1 17.0586 6.45306 9.33393
451 2 16.85 6.47339 6.27158
262 1 1.72139 11.1943 5.2235
463 1 3.17171 9.298 6.41776
244 1 5.09994 8.30559 4.90681
264 2 5.20669 11.2496 5.23596
444 1 6.85584 9.42848 6.49006
266 2 8.58793 11.5123 4.91672
663 2 5.23676 8.01197 8.14852
464 1 5.43033 11.1283 8.67162
268 2 12.0897 11.4482 4.6977
467 1 10.5821 9.64534 6.56009
71 1 17.019 9.84629 0.176987
469 2 13.5669 9.86434 6.29669
270 1 15.053 11.2108 4.81965
470 1 15.3474 11.2092 7.99502
886 2 8.15054 14.4383 14.483
282 2 2.06222 14.1749 5.54065
483 1 3.74744 12.4874 6.69022
491 2 16.9403 12.8865 6.28478
284 1 5.28128 14.3753 5.72727
485 1 6.96775 12.7788 6.91466
486 2 5.1402 14.2958 8.47794
271 2 16.9126 9.44199 3.32609
286 1 8.28654 14.1199 4.88606
487 1 10.2196 12.6019 6.6439
288 1 11.7907 14.3472 4.74331
867 1 10.0901 9.33855 12.8581
489 1 13.3538 12.6651 6.88214
290 2 15.076 14.2606 5.17296
805 1 6.83417 -0.0846167 13.0624
851 2 16.6857 6.08487 12.7635
885 2 6.90098 12.5291 12.9065
402 1 1.80907 1.84243 8.19612
623 1 3.49143 3.44295 9.87163
602 1 1.8265 1.58698 11.5066
461 1 0.349424 9.48387 6.59649
604 2 5.55923 1.53286 11.1861
625 1 6.41693 3.10374 9.66803
606 2 8.61975 1.90951 11.2036
408 1 11.7988 1.96775 8.09925
627 1 10.1137 3.40641 9.47429
608 1 11.7306 2.01201 11.0255
410 1 15.0159 1.7791 8.36206
629 2 13.5275 3.58665 9.74126
610 2 15.0571 1.48984 11.2754
889 1 13.1798 12.7061 13.0148
422 2 2.29968 4.76987 8.11794
622 1 1.9129 5.27379 11.0485
643 2 3.25278 6.62301 9.9294
863 1 1.69241 8.16181 11.4462
424 1 5.17835 4.74029 7.94963
624 1 5.25474 5.23302 11.0716
645 1 6.9172 6.48783 9.49016
626 2 8.3674 4.92834 11.0635
644 1 5.1492 8.13063 11.0563
426 1 8.44608 4.97948 7.94244
465 1 8.38048 8.17937 8.09021
647 1 10.094 6.56967 9.69016
628 2 11.9689 5.13479 11.5106
648 1 11.8472 7.93424 11.3977
871 2 17.3572 9.38485 13.0652
450 1 15.3265 8.13856 8.03654
430 1 15.2266 5.01761 7.92305
649 2 13.7142 6.65611 9.66539
630 2 14.9614 4.87504 10.9761
650 2 15.2415 7.9419 11.4005
442 2 1.69124 8.00237 8.32226
462 2 1.4394 11.4139 8.25228
8092 2 3.03533 9.74837 9.82715
662 2 2.0603 11.3423 11.3894
646 2 8.26344 7.94779 11.3282
664 1 4.98839 11.3777 11.6368
665 1 7.0948 9.7867 10.0554
666 1 8.66032 11.343 11.344
466 2 8.50101 11.2361 7.99346
468 2 12.0337 10.8346 8.24515
446 1 10.1877 9.44634 9.80491
667 2 11.7759 11.0334 11.2871
869 2 13.2092 9.39806 12.9431
670 1 15.1683 10.8119 11.4996
669 1 13.8246 9.68021 10.033
482 1 1.96829 14.5465 8.23952
682 2 1.57863 14.7781 10.9165
484 1 3.46691 12.8187 9.68565
684 2 5.09064 14.2884 11.398
685 2 7.00545 12.6831 10.022
686 2 8.4916 14.4055 11.407
488 1 11.6522 14.5932 8.13595
209 2 13.5992 0.0895331 3.13912
705 2 8.71888 14.3414 7.85199
688 2 11.6589 14.5473 11.3155
687 2 10.4499 12.9556 9.76147
231 1 16.933 3.07024 3.12607
105 2 6.59135 15.7633 0.101134
490 1 15.0595 14.5704 8.1547
690 1 15.0452 14.3073 11.2197
689 1 13.4335 12.8507 10.1812
870 1 14.878 10.9378 14.4846
866 1 8.01 11.2125 14.3751
9351 1 0.0698357 15.7582 6.30024
802 2 1.85238 1.79836 14.3768
823 2 3.69915 3.45057 12.7778
509 1 13.2927 15.8719 6.07117
804 1 5.21794 1.78058 14.1631
825 1 6.70715 3.61248 12.6864
668 2 10.2912 12.513 12.9978
806 2 8.35306 1.79383 14.1161
808 1 11.5591 1.65759 14.5569
827 1 10.2097 3.38538 12.6209
251 2 16.7956 6.34986 3.2296
887 1 11.6992 14.7089 14.4063
829 1 13.6625 3.35903 12.9238
810 1 15.1182 1.55501 14.3636
868 2 11.743 11.1665 14.4889
642 2 3.70986 6.50018 12.8011
822 1 1.76496 5.07202 14.5814
826 1 7.00892 6.43223 13.0743
843 2 4.97427 5.09092 14.2683
1045 2 8.75889 4.66794 14.4623
846 2 8.57841 7.93643 14.6645
828 1 12.1201 4.85272 14.8403
847 2 10.3932 6.27079 13.1028
848 1 11.9573 7.78161 14.6306
884 1 5.13275 14.2471 14.3256
830 1 14.9006 4.80697 14.4238
849 1 13.3736 6.39787 12.9831
850 1 15.007 8.10065 14.6141
1063 1 1.36992 8.08718 14.2982
862 2 1.5511 11.0464 14.3093
824 2 3.67389 9.34387 12.7645
845 2 5.21004 8.15784 14.1111
1065 2 4.87649 11.1384 14.358
865 2 6.87349 9.66421 12.7474
609 1 13.3296 -0.0255392 9.63515
91 2 16.7941 12.7582 0.0188579
671 1 16.698 9.56356 9.91813
407 1 10.3153 0.201955 6.37967
691 1 16.5978 12.8045 9.49341
831 1 16.8865 3.38541 12.6521
431 1 16.7971 3.28267 6.40155
891 2 16.8532 12.7255 12.9995
4802 2 3.26006 -0.0237216 0.280217
807 2 9.96405 0.357241 12.6566
411 2 16.6091 0.0373731 6.31517
607 2 10.0551 0.429383 9.47173
1071 2 17.076 9.50706 15.9402
782 2 3.61167 -0.167496 9.54563
8409 2 0.0228559 6.46911 0.338789
27 2 10.1837 3.08061 -0.16431
89 1 13.6073 12.7217 0.0127367
69 2 13.759 10.1529 -0.119127
507 1 9.88258 15.6313 6.01517
9 2 13.8216 0.228236 0.456202
6166 1 0.383507 15.7791 12.6957
207 1 10.1105 0.198219 3.26704
1024 2 7.01256 6.54998 15.9218
1025 2 6.82322 3.54348 15.5246
1031 2 16.74 3.06511 15.926
1111 2 16.8934 15.8338 15.4652
1003 1 3.4459 0.298731 15.805
4856 2 16.8252 3.09261 0.108433
7 1 10.2233 0.151597 0.292454
21 1 0.171646 3.42707 0.315562
47 2 10.0494 6.32964 0.110803
1002 2 1.73681 1.67704 17.575
1204 2 3.32604 2.99073 19.2962
1049 2 13.4759 6.7322 16.3616
1089 1 13.2655 12.6273 15.9785
1069 1 13.1822 9.75051 16.2154
1004 2 4.75052 1.81563 17.2697
1225 2 6.84104 3.34672 18.6033
1067 1 10.2422 9.74201 15.9317
844 1 6.68031 9.63568 16.0867
1006 2 8.43351 1.87679 17.4774
1008 1 11.6606 1.87512 17.6163
1026 1 10.0164 3.52574 19.3317
5282 2 0.1786 3.31898 16.0054
1010 2 15.1328 1.30369 17.5751
1229 2 13.6731 2.95106 19.4033
1891 1 16.8702 12.8713 28.7551
1022 2 1.53069 5.02017 17.662
1243 1 3.27635 6.24917 19.1635
1042 2 1.89598 8.21711 17.6407
1023 1 3.38177 3.58771 16.0549
1507 1 9.84005 15.6461 22.5966
1029 2 13.7659 3.15853 16.434
1223 1 5.17745 4.89896 17.5189
1445 2 6.42807 6.40804 19.0734
1245 2 8.56791 5.31519 17.4815
1046 1 8.37039 8.0638 17.7075
1028 1 11.7148 4.66947 18.1809
1247 2 10.1443 6.65106 19.3427
1048 1 11.735 8.01312 17.8206
1001 2 0.0968013 0.179033 16.0516
1030 1 15.1453 5.07879 17.8094
1249 2 13.7547 6.4075 19.6685
1050 2 15.1035 8.1481 17.7931
1047 2 10.2394 6.36434 16.1112
1905 1 6.99329 15.7278 28.8872
1807 1 10.3888 0.16666 28.7348
1062 2 1.73333 10.9822 17.5679
1285 1 3.44383 9.41052 19.4293
1442 2 -0.0178016 6.3966 22.2744
1044 1 4.93083 7.98159 17.518
1064 2 4.84875 10.9887 17.585
1266 2 6.68682 9.4259 19.1215
1611 1 17.0715 0.104424 25.7358
1066 2 8.11369 11.1433 17.8724
1068 2 11.8718 11.206 17.6605
1267 2 10.115 9.43735 19.2572
1070 1 14.9958 11.3223 17.5137
1269 1 13.593 9.59728 19.3146
1889 1 13.4593 12.5722 28.6303
2109 2 15.207 14.1064 30.7468
1082 2 1.70091 14.5621 17.7044
1283 1 3.13969 12.8308 18.9256
1087 1 10.1759 12.9173 15.8714
1211 1 16.7532 0.1234 19.215
1264 1 6.43337 12.4001 19.017
1084 2 5.15589 14.2376 17.4486
1061 2 -0.172048 9.46865 16.0683
1007 2 10.025 0.33876 16.3668
1086 2 8.48908 13.8568 17.4511
1287 2 11.7981 14.2524 17.5668
1485 2 10.1629 12.4827 19.0292
1686 1 10.4368 12.5252 28.7229
1090 1 14.9882 14.1071 17.3835
1289 2 13.7071 12.5329 19.4371
1083 2 3.14551 12.8262 15.9478
1707 2 10.4429 15.9545 25.5169
1202 2 0.236211 3.40297 19.1041
1401 1 1.21895 1.65828 20.8827
1404 2 3.29153 3.01802 22.1088
1281 1 0.317217 12.8659 19.6756
1205 1 5.12444 1.61394 20.5304
1407 2 6.85134 3.1415 22.5
1425 1 4.83316 1.29403 23.8187
1406 2 8.61114 1.53069 20.8775
1427 1 10.2972 3.25792 22.1167
1409 1 11.8381 1.44333 21.282
864 2 3.06948 9.54691 15.852
1429 1 13.7206 3.27452 22.4558
1210 2 14.9478 1.69872 20.7377
1629 2 15.646 1.67907 23.992
1311 1 16.9359 15.4024 18.8322
1887 2 12.0116 14.2705 30.6997
1222 2 1.52763 4.77912 20.9067
1224 2 3.80217 6.27625 22.4499
1423 2 4.9825 4.57992 20.8312
1424 1 6.55369 6.37426 22.6596
1246 2 5.14894 7.91595 20.6432
1206 2 4.76692 4.38999 24.1906
1226 2 8.09002 5.06387 20.8004
1228 1 11.7491 4.96255 21.1086
1447 1 10.0319 6.32443 22.4106
1426 1 8.64855 4.68742 24.0932
1428 2 11.9273 4.9515 24.038
1449 2 13.7366 6.17413 22.4495
1230 2 15.5272 4.72987 20.8124
1451 1 15.7633 4.93565 23.9393
1649 2 15.6823 7.9129 23.8006
1242 1 1.55572 8.1333 20.7812
1244 2 3.43964 9.546 22.3956
1262 2 1.76751 10.883 20.7349
1263 2 4.81161 11.1212 20.5775
1643 2 6.73502 9.6103 22.5862
1265 2 8.11409 8.14666 20.8663
1465 1 8.34506 11.1539 20.7421
1248 2 12.2113 7.89053 21.2129
1268 2 11.4714 11.2097 20.7612
1467 1 9.80623 9.35474 22.7338
1250 1 15.4269 7.95364 21.0654
1469 2 13.5278 9.74052 22.4649
1270 2 15.3688 11.033 20.8007
1909 2 13.9112 15.3983 28.6847
1483 2 3.49013 12.5043 22.6946
1282 2 2.19493 13.8957 21.2105
1463 2 6.82552 12.2141 22.4252
1284 2 5.14295 14.1195 20.8859
1286 2 8.16486 13.95 20.6489
1288 1 12.0443 14.3822 20.7474
1487 1 9.99199 12.8888 22.3586
1027 2 10.0184 3.35411 16.1534
1489 1 13.8419 12.7065 22.3888
1290 1 15.2422 14.2473 20.5778
1505 2 6.89017 15.9323 22.342
1402 2 1.80901 1.65809 23.7627
1623 1 2.99652 3.00011 25.5623
1602 1 1.56568 1.2175 27.066
1625 2 6.28961 2.88425 25.5493
1604 1 4.85265 1.373 27.3096
1607 2 8.20928 1.49894 24.1614
1408 2 11.8034 1.81511 24.2839
1606 1 8.07366 1.44433 27.1006
1627 2 10.0433 3.18025 25.597
1608 1 11.9672 1.56058 27.3568
1610 2 15.5617 1.56349 27.5776
1430 2 13.7576 3.37404 25.62
1422 2 1.92631 4.86907 23.9977
1443 2 1.32892 4.52712 27.166
1622 2 2.91067 6.4825 25.736
1461 1 1.76304 7.94984 23.9011
1642 2 1.17056 7.94893 27.3493
1446 2 8.15656 7.63983 24.1059
1645 1 6.34358 5.43281 25.5924
1624 1 4.49632 4.45592 27.3611
6742 1 4.96258 7.80679 24.2516
1644 2 4.89593 7.77552 26.8741
1646 2 8.25115 8.00648 27.2861
1626 1 8.47585 4.76462 27.334
1647 1 9.99129 6.31803 25.7342
1849 2 11.7142 4.76598 27.2266
1628 2 13.935 6.55147 25.4025
1630 2 15.49 5.04473 26.8034
1650 2 15.1858 8.08469 26.9496
1271 1 16.9368 9.60509 19.2257
1462 1 1.40909 11.16 24.1224
1663 1 3.14385 9.6244 25.573
1662 1 1.71801 11.0833 27.3492
1464 1 5.46712 10.9743 24.3359
1444 2 7.01441 9.46252 25.552
1664 1 5.15396 11.354 27.1664
1665 2 8.30455 11.2546 24.0517
1468 2 11.7485 10.8584 23.6115
1666 2 8.48331 11.0383 27.3177
1648 2 12.2413 7.78824 27.1828
1448 1 11.778 7.96186 24.0314
1668 2 11.6195 10.7386 26.6567
1667 2 9.70581 9.15035 25.3789
1470 2 15.4358 10.6399 23.8406
1669 1 13.4239 9.55596 25.3686
1670 1 15.0805 11.2157 27.3122
1410 1 13.4917 0.27135 22.8715
1691 2 16.9583 12.5326 25.4413
1482 2 1.53049 14.3603 24.0471
1682 1 1.7932 14.2648 26.9926
1683 1 3.34094 12.8176 25.6371
1705 1 7.05795 15.772 25.4414
1486 2 8.45054 14.1433 24.1586
1484 1 5.55947 14.1659 24.0356
1684 2 5.00204 14.3587 27.3734
1685 1 7.0874 12.7167 25.7167
1488 1 11.762 13.9664 24.0314
1687 2 8.3592 14.4623 27.1384
1688 2 11.8268 13.7619 26.8932
1466 1 10.1616 12.5946 25.3916
1405 1 6.64891 0.23116 22.1183
1490 1 14.9741 14.1726 24.0563
1689 1 13.8807 12.2969 25.1473
1690 1 15.21 13.7989 27.1155
1209 2 13.0341 0.0223294 19.0127
1886 1 8.61106 14.1771 30.2206
1652 2 16.9639 6.66594 28.4851
1802 2 1.40808 1.46942 30.1093
1824 2 3.2166 2.91181 28.9407
1871 2 16.6607 9.7653 28.3684
1804 2 5.23754 1.15665 30.2365
1825 1 6.76208 3.19643 28.7943
1806 1 8.27451 1.43787 30.3445
1907 1 10.5004 15.6112 28.7801
1808 1 11.6416 1.50674 30.5415
1827 1 9.92335 3.16755 28.6934
1829 2 13.8529 3.23814 28.7836
1810 1 15.4858 1.27787 30.364
1822 1 1.56426 4.81037 30.01
1843 2 3.56584 6.35029 28.4967
1842 2 1.53452 8.34249 30.5089
1845 1 6.65375 6.17848 28.8469
2023 1 4.79836 4.92297 30.1895
1844 1 5.34629 7.84423 30.1772
1826 2 8.71849 4.80534 30.2741
1847 1 12.2259 4.79175 30.3589
1848 1 10.2252 6.3549 28.6244
2069 1 11.9312 8.11421 30.1749
1851 1 15.462 8.2954 29.9606
1850 1 13.6911 6.12475 28.5388
1830 1 15.5464 4.8723 29.9492
1231 2 16.7799 3.20791 18.8974
1862 1 1.78722 10.9167 30.285
1863 2 3.31808 9.32642 28.9335
1865 1 7.02745 9.48916 29.053
1864 2 5.13489 11.0101 30.4535
1867 2 10.3996 9.61825 28.6097
1846 1 8.62664 7.56242 30.5602
2089 1 11.6791 10.9563 30.5466
1866 2 8.31324 11.0792 30.3326
1869 1 13.5324 9.49052 28.9074
1870 2 15.0958 11.4295 30.2466
1831 2 16.8286 3.36337 29.0219
1709 2 13.6415 15.9613 25.6263
1883 1 3.55928 12.5606 28.7702
1882 2 2.06715 14.1011 30.3682
1671 1 17.0762 9.5113 25.4552
1885 2 6.67579 12.8013 28.7057
1884 2 5.21483 14.2211 30.7333
1241 1 -0.0241498 6.38616 18.9627
1711 1 16.7943 15.6982 25.6889
1251 1 16.9522 6.25101 19.1522
1103 2 3.28706 15.6488 15.8977
1207 1 9.92357 -0.00805536 19.3069
1631 2 16.7792 3.0947 25.735
1431 2 16.9408 3.04899 22.3
1511 1 16.9256 16.0719 22.4449
1085 2 6.12296 12.7988 16.0085
1227 2 6.36341 0.302166 18.8013
1491 1 16.663 12.3531 22.4944
1291 2 16.7995 12.8301 19.29
1911 2 17.0057 15.437 28.9021
1051 2 16.8371 6.26007 16.099
1307 2 10.1062 15.6853 19.3552
1903 1 3.5987 15.819 28.8993
1411 2 17.2387 -0.127309 22.3731
1609 1 13.6416 0.177522 25.6653
1305 2 6.64441 15.7296 19.0778
5654 2 0.154388 15.5487 19.2992
2049 2 13.5861 6.54327 31.5945
1091 1 16.8548 12.643 15.9428
1043 2 3.77487 6.39557 16.2243
1005 2 6.59521 0.256104 16.2514
2203 2 1.35183 1.56146 33.6873
2223 1 3.45651 2.94039 35.1831
2045 2 6.52207 6.35679 31.8133
2889 2 14.0651 12.1686 44.3595
2621 1 -0.101292 3.1781 41.1982
2083 2 3.51137 12.4915 31.8842
2205 2 4.91733 1.56719 33.539
2225 2 6.66571 3.39841 34.8714
2701 2 -0.216342 15.3316 41.3441
2027 1 8.5651 1.64584 33.1463
2008 1 11.8058 1.65711 33.3729
2227 2 10.0383 3.15424 34.8323
2909 1 13.8171 15.6332 44.1513
2010 2 15.8227 1.43637 33.6668
2229 1 13.8206 3.15889 34.796
5017 2 0.25371 9.92428 38.2734
9527 1 0.486292 12.5454 31.8152
2022 2 2.0294 4.71554 33.5306
2243 2 3.79867 6.82861 35.2607
2042 1 1.7711 7.9251 33.4599
2087 2 10.1811 12.8348 32.0883
2484 2 3.67733 15.7032 41.3553
2024 2 4.65127 4.57021 33.278
2245 2 6.65528 6.01113 35.045
2063 2 5.24438 7.7534 33.2694
2026 1 8.2582 4.98663 33.3107
2002 2 3.28109 2.97038 31.5996
2046 1 8.40732 7.8244 33.5165
2028 2 12.339 5.06318 33.422
2247 2 10.3327 6.48684 34.8762
2048 1 12.3979 7.93575 33.5532
2261 2 -0.0837556 9.19055 35.2912
2661 1 0.0381665 9.16179 41.747
2030 1 15.6866 4.71827 33.3471
2249 2 13.8611 6.4337 35.1871
2491 2 16.8513 12.6411 38.4509
2890 2 15.5408 14.4707 46.0538
2681 1 0.151524 12.4537 41.5973
2062 1 1.88903 11.0076 33.5223
2263 2 3.55279 9.47007 35.4044
2241 1 0.655251 6.38236 34.9656
1828 2 10.2394 3.77923 32.0123
2044 1 6.99066 9.77732 34.8691
2266 2 5.3422 11.3256 33.1194
2066 2 8.48612 11.2287 33.3259
2068 1 11.8437 10.8584 33.4857
2267 1 10.2119 9.73529 34.7589
2803 1 3.03816 0.102639 44.3545
2050 1 15.4735 7.96155 33.7631
2070 1 15.3762 10.9473 33.6295
2269 2 13.9845 9.45486 35.4003
2852 2 17.0576 6.3361 44.5133
1888 2 13.9707 16.0572 32.1129
2871 2 17.0179 9.43495 44.2035
2283 2 3.25533 12.6697 34.7542
2303 1 1.49668 14.2241 33.3336
2384 2 6.91237 0.475415 34.9414
1868 1 13.6621 9.648 31.8911
3047 1 10.2411 6.37186 47.6017
2285 2 5.12316 14.2575 33.3737
2284 2 6.92121 12.8428 34.7716
2086 2 9.00796 14.459 33.6207
2090 2 12.207 14.7799 33.804
2287 1 10.4735 12.7847 34.9849
2441 1 0.210462 6.0666 38.2004
2603 2 3.23855 -0.246715 40.9489
2289 1 13.6095 12.8987 35.2687
2309 1 15.4397 14.2139 33.6927
2405 1 6.969 0.0911707 38.2482
2047 2 10.533 6.51835 31.8514
1890 2 13.4902 12.64 31.9261
2671 2 17.0801 9.08874 41.4008
2202 1 1.56415 1.80478 36.5525
2423 1 3.31489 2.83506 38.2862
2402 1 1.654 1.73648 39.9402
2204 2 5.24609 1.60898 36.7051
2425 1 6.86061 3.53262 38.1015
2404 2 5.55522 1.60142 39.6584
2206 2 8.59563 1.62223 36.6968
2427 2 10.2899 3.1158 37.9215
2208 2 11.7213 1.56597 36.1389
2429 2 13.0676 3.00949 37.8951
2210 1 15.632 1.58439 36.5753
2410 2 15.1387 1.56561 39.2895
2870 2 16.024 10.9215 46.1794
2222 1 1.87776 4.79669 36.5605
2443 1 3.41246 6.49737 38.0871
2242 1 1.70802 8.14867 36.6508
2224 1 4.78136 4.66369 36.7957
2445 2 6.83594 6.16359 38.4041
2244 2 5.68153 8.12153 36.4892
2424 1 5.05136 4.36505 39.5631
2226 2 8.54752 4.62496 36.4205
2228 2 11.8558 4.60999 36.4138
2447 2 10.0894 6.23424 38.06
2426 2 8.70056 4.27735 39.3232
2230 2 14.968 4.47566 36.7704
2449 1 12.9886 6.43406 38.2733
2250 2 15.6669 7.72069 36.8935
2670 2 17.1107 12.7598 44.2602
2262 1 1.63024 11.0024 36.4179
2463 1 3.31361 9.49415 38.3122
2462 1 1.74266 11.0939 39.8707
2264 1 5.37203 11.0584 36.2982
2465 2 7.03393 9.27202 38.0546
2246 1 8.43957 7.65431 36.3682
2248 1 11.5806 7.73991 36.6275
2265 2 8.7536 11.1629 36.6439
2268 1 11.8658 11.0618 36.9958
2467 1 9.90291 9.11568 38.1944
2471 2 15.4305 10.8818 36.748
2469 2 13.5709 9.4244 38.3704
2271 1 17.0307 9.70563 35.0821
2282 2 1.48948 13.9928 36.4002
2483 1 3.67335 12.398 38.1171
2888 1 12.3448 14.0364 46.2158
2464 1 6.82267 12.6543 38.122
2305 1 5.18457 14.2379 36.21
2485 1 8.68517 14.1373 36.4014
2488 2 10.1945 12.7775 37.8958
2288 2 11.9189 14.2782 36.5206
2507 1 12.1974 13.9268 40.1735
2489 2 13.5033 12.665 38.4013
2290 1 15.3932 14.3161 36.6071
2651 2 17.003 6.1737 40.7982
2887 2 10.3035 12.2025 44.8859
2623 1 3.8939 2.61125 41.3891
2602 1 1.26055 1.54835 42.8593
2025 2 6.6163 3.2363 31.8876
2625 1 6.88085 3.07061 41.331
2604 1 5.1766 1.21437 43.2751
2606 1 8.35875 1.71956 42.82
2408 1 12.1222 1.45358 39.6126
2406 1 8.85048 1.44119 39.6313
2627 1 10.1967 3.32571 41.4911
2608 1 11.9458 1.64984 42.9969
2085 2 6.99414 12.8854 31.9592
2629 2 13.6732 2.88458 41.6465
2610 1 15.3543 1.28962 43.1067
2043 1 3.06795 6.42149 31.6269
2422 2 1.88795 4.57125 39.6632
2643 2 3.70193 6.30306 40.8409
2622 1 1.58968 4.69461 43.0882
2642 1 1.82161 7.67249 43.0523
2624 1 5.21657 4.77422 42.676
2645 1 6.90667 5.95399 40.892
2646 1 8.14522 7.45624 43.0774
2428 1 11.8218 4.39681 40.0705
2626 2 8.63249 4.94352 43.0528
2628 1 12.1581 4.70854 43.0352
2647 1 10.5473 6.27807 41.7801
2450 2 15.3066 7.7737 39.9069
2430 2 14.6477 4.5047 39.8002
2649 1 13.5507 6.42956 41.5423
2630 2 15.4021 4.76065 42.8999
2650 2 15.5286 7.81129 42.8611
2886 2 8.7371 14.1525 46.0942
2065 1 6.90952 9.42128 32.0509
2442 2 1.57721 7.7249 39.9717
2663 2 3.7393 9.24727 41.5726
2662 2 1.50996 10.8922 43.1586
2683 2 5.05668 11.0182 39.5574
2466 1 8.55773 11.1428 39.7664
2446 2 8.52376 7.70107 39.831
2444 1 5.45992 7.9617 39.512
2644 2 4.86386 7.43188 43.3651
2665 2 6.76725 9.27424 41.5406
2664 2 5.09516 11.0515 43.2605
2666 2 8.61033 10.5965 43.1358
2448 2 11.5626 7.63242 40.1757
2468 1 11.817 11.0683 39.7618
2648 1 12.184 7.87096 43.1259
2667 1 10.2949 9.19442 41.6844
2668 1 11.9472 10.5403 43.184
2064 2 3.52702 9.41945 31.8127
2470 2 15.4131 10.7191 39.7394
2669 1 13.6285 9.25715 41.2845
2691 2 15.2356 10.7399 42.6835
2482 2 1.63898 14.2106 39.5835
5394 2 2.15136 14.1712 43.0484
2682 1 3.52791 12.4645 41.1012
2505 1 5.37475 14.5272 39.4804
2487 2 8.1884 14.1532 39.7745
2703 1 5.4003 14.0047 43.0802
2685 2 6.76172 12.3555 41.6007
2882 1 1.92266 14.2201 45.9436
2867 2 10.3674 8.96099 44.4
2686 1 8.63602 13.9467 43.2974
2688 2 11.9555 13.5693 43.1439
2687 2 10.3106 12.4454 41.5196
2490 2 15.6504 14.0944 40.0132
2911 2 15.483 14.4054 42.5435
2689 2 13.7089 12.359 41.3475
7124 2 0.144654 16.094 38.2804
2866 1 8.55138 10.2142 46.385
2631 2 16.9297 3.34884 41.388
2884 1 5.40293 14.0979 46.3052
2802 2 1.64286 1.25472 46.2751
2823 2 3.48059 2.97789 44.5439
2804 2 5.32061 1.31733 46.1699
2825 1 6.76817 2.98064 44.3358
2806 1 8.65744 1.6054 46.4084
2885 2 6.89862 12.5604 44.8641
2864 1 5.38291 11.2098 46.1167
2808 2 11.8283 1.32324 46.0377
2827 1 9.99663 3.34138 44.6458
2251 2 16.8806 6.23278 35.2545
2865 1 6.65269 9.04352 44.6445
2829 1 13.593 3.09633 44.6713
2810 2 15.8458 1.74622 46.0803
2385 2 3.42533 0.204645 35.162
2868 1 12.1572 10.9242 46.4272
2822 1 1.89597 4.36449 46.128
2843 1 3.37177 5.86566 44.6883
2842 1 1.31387 7.76355 46.0091
2848 1 12.4635 7.93961 46.2514
2845 1 6.64369 5.87191 44.5813
2824 2 5.45324 4.20561 46.5847
2846 1 8.39575 7.68046 45.951
2826 1 8.44995 4.82341 46.1685
2828 2 11.9317 4.75044 46.3232
2847 2 10.4102 6.49595 44.8187
2883 1 3.50354 12.4147 44.5333
2869 2 13.9941 9.23669 44.6375
2849 2 14.0073 6.43003 44.7082
2830 1 15.3285 4.60936 46.2286
2850 1 15.8456 7.80556 46.1926
2863 1 3.65276 9.39837 44.7528
2862 1 0.985413 11.342 46.1916
2231 1 17.085 3.0952 35.3772
2844 1 5.13854 7.81803 46.3407
2221 2 -0.161267 3.29901 34.8181
2092 1 16.9917 16.0887 31.7814
2071 2 16.7827 9.58506 31.6028
2067 1 10.1387 9.34655 31.9585
8592 1 -0.0576147 6.41851 31.9663
2009 2 13.6243 0.121882 31.6728
2807 2 10.3269 0.130279 44.5524
2684 2 3.85477 15.8977 44.8672
2103 2 3.37012 15.6398 32.0935
2503 2 3.62136 15.9104 38.0845
2472 1 17.101 12.2385 41.4752
2831 1 16.9694 3.28052 44.1211
2605 2 6.61378 -0.0504101 41.1092
2084 2 3.48224 15.9186 34.9686
2707 1 10.1341 15.4045 41.5451
2508 2 10.405 15.264 38.6338
2809 2 13.5868 0.327954 44.392
2486 1 6.96983 15.6281 41.7597
2509 2 13.7991 15.6639 38.2737
2006 1 9.91899 0.183709 34.8641
2607 2 10.4703 0.134973 41.2611
3041 2 -0.184074 5.95492 47.5448
3083 1 3.10086 12.5869 47.4242
3067 2 10.7344 9.10193 47.6496
2091 1 16.9356 12.6115 32.2329
2029 2 13.9568 3.06582 31.8601
3002 2 1.77616 1.73195 49.2828
3222 1 3.6039 3.37979 50.9824
3063 2 2.88369 9.35077 47.5498
3004 2 5.50526 1.36746 49.4014
3225 2 6.72057 3.24185 50.9666
3006 2 8.939 1.56852 49.3383
3701 2 -0.189159 15.7834 57.2448
3008 1 12.0123 1.53441 49.1093
3227 1 10.2026 3.12855 51.1113
3282 1 0.467238 15.4446 50.8399
5639 2 3.35221 0.044042 57.0937
3029 2 13.994 2.80476 47.7736
3229 1 13.949 3.14299 51.1465
3010 1 15.4667 1.79932 49.6652
8048 2 0.37637 9.48841 60.1484
3025 2 7.08476 3.30683 47.9473
3085 2 7.44575 12.6878 47.6741
8682 1 0.230548 6.18974 60.2736
3022 1 2.01472 4.54961 49.4098
3243 2 3.34671 6.10836 50.8551
3024 1 5.20168 4.82418 49.0813
3245 2 6.56504 6.53863 50.8853
3026 1 8.87166 4.89704 49.4873
3107 2 10.6033 15.5799 47.5236
3028 1 12.5611 4.57965 49.5376
3247 1 10.3637 6.32697 50.6738
3249 2 14.0439 6.56944 51.1263
3030 1 15.7967 4.80159 49.5427
3609 2 13.4075 0.206402 57.0675
3042 2 1.56098 7.62103 49.2007
7341 1 1.53608 10.7262 49.4127
3263 1 3.34465 9.44897 51.1456
3044 2 4.79586 8.13169 49.1241
3064 1 4.71171 10.9581 49.1946
3265 2 6.88039 9.35074 50.8716
3046 2 8.88405 7.85314 49.022
3048 2 11.9925 7.71073 49.3113
3066 2 9.1481 11.1278 48.9747
3068 1 12.087 10.8878 49.2573
3267 2 10.2587 9.36169 50.7997
3049 2 14.2045 6.27427 47.8939
3703 1 3.51508 15.7355 56.8675
3607 2 10.1859 0.0870468 56.928
3050 1 15.6629 7.88224 49.3889
3269 2 14.0403 9.38647 50.9092
3070 1 15.4755 11.041 49.1542
3705 2 7.0039 15.5794 56.8993
3283 1 3.48451 12.8843 50.5451
5265 2 2.04576 14.0583 49.1837
3889 1 13.5047 12.6153 60.2776
3069 2 14.1252 9.60034 47.4046
3291 1 16.496 13.1497 50.861
3043 2 3.09012 6.17247 47.5449
3307 1 10.1375 15.8609 50.9761
3084 2 5.50698 14.3404 49.0827
3285 2 6.75866 12.5053 50.6176
3086 1 8.62059 14.2193 49.1813
3204 2 7.01552 0.0558674 50.7604
7312 2 0.0223314 12.7761 53.8686
3287 2 10.4092 12.4691 50.7532
3088 1 12.1527 14.2581 49.4813
3866 1 8.84048 11.1914 61.9983
3890 2 15.4318 14.4674 62.2967
3631 1 17.3896 3.33022 57.2464
3090 2 15.323 14.2671 49.0541
3289 1 13.7033 12.5206 50.7939
3909 2 13.7115 15.9608 60.6206
3207 1 10.4955 0.209093 50.9839
6948 2 2.02822 1.44357 52.5466
3402 1 3.14982 3.28472 53.952
3491 2 16.7159 12.6907 53.9375
3622 2 1.29927 1.36937 55.6096
6995 1 0.234778 3.08498 60.1974
3223 2 4.93493 1.71311 52.2532
3206 2 6.57692 3.53231 53.904
3205 2 8.30645 1.65047 52.2774
3404 2 7.99307 1.42698 55.3831
3208 2 11.9256 1.66989 52.3831
3427 1 9.87182 2.98161 53.9178
3408 1 11.9695 1.90512 55.2295
3691 2 16.905 12.6013 57.4582
3429 1 14.008 3.18901 54.2071
3210 1 15.54 1.70568 52.6747
3505 2 7.01557 15.4947 53.5811
4009 1 13.7322 0.210158 63.0608
8542 2 1.41552 4.58979 52.1379
3443 2 2.94762 6.0687 53.8512
3224 2 5.21116 4.69015 52.4449
3445 1 6.67446 6.47064 54.0356
3246 1 8.26623 7.69943 52.3356
3226 2 8.68725 4.83869 52.5268
3425 2 5.0305 4.96344 55.6559
3228 1 11.8116 5.13748 52.7261
3447 2 9.95189 6.41515 54.0333
3248 2 11.9957 8.19925 52.2034
3448 2 12.1407 7.80772 55.5823
3449 2 13.6604 5.92955 53.7348
3230 2 16.0456 4.75786 52.423
3250 1 15.7315 8.01334 52.597
3242 1 1.48346 7.6217 52.2915
3262 1 1.71793 11.1188 52.6569
3463 1 3.27611 9.36561 54.3055
3442 2 1.76962 7.78128 55.5057
3244 1 4.92571 7.65326 52.4561
3465 2 6.76491 9.46392 54.0309
3264 2 4.82054 11.0294 52.5722
3266 2 8.32622 10.9807 51.9921
3444 2 5.33603 8.07887 55.6436
3665 1 5.24637 11.1748 55.4128
3268 2 11.8993 11.0744 52.579
3467 2 9.90784 9.25808 53.9242
3468 1 12.0677 10.9503 55.419
3469 2 13.8815 9.36789 53.831
3270 1 15.4739 11.1112 52.3945
3483 2 2.03803 13.7793 52.2132
3486 2 3.3794 12.9475 54.1971
3482 2 1.52248 14.4144 55.5115
3284 2 5.08651 13.7008 52.3349
3485 1 6.981 12.327 53.9076
3286 2 8.49219 13.7703 52.1183
3484 2 5.42765 14.4952 55.8061
3487 2 10.6318 12.7768 53.7774
3288 1 12.22 14.6992 52.2062
3488 1 11.9046 14.2363 55.8741
3492 1 16.6834 15.7074 57.2444
3489 2 13.6887 12.5558 53.9041
3290 2 14.9414 14.3445 52.21
3846 1 8.82065 7.97099 61.6666
3907 1 11.6153 13.9662 61.7293
3624 1 3.29775 2.69044 56.7344
3963 2 1.42259 1.58117 58.5002
3431 2 17.3535 3.10583 54.1394
5158 2 4.92901 1.70945 55.4231
3625 1 6.63013 3.16426 57.321
3823 2 5.21837 1.59572 58.9314
3606 2 8.43314 1.33551 58.6
3627 1 9.98643 3.12015 57.0546
3608 1 12.064 1.74934 58.7064
3671 1 17.0952 9.35141 57.4054
3410 2 15.4235 1.61276 55.6002
3629 1 14.1856 3.04852 57.1658
3610 2 15.808 0.910836 58.6579
3692 2 16.9908 12.5475 60.3856
3865 2 6.85741 9.23598 60.3524
5952 1 1.49346 5.0006 55.5763
3643 2 3.42975 6.18446 57.0458
3841 2 1.75881 4.51559 58.6366
3642 1 1.70386 7.95385 58.4787
3426 2 8.18911 4.70364 55.5936
3663 1 4.98271 4.54457 58.6304
3645 2 6.73906 6.10946 57.2599
3626 1 8.63518 4.82709 58.6427
3646 2 8.42535 7.78723 58.4905
3428 2 11.8501 4.55476 55.3046
3647 1 10.1534 6.49454 57.0658
3628 1 11.6332 4.73158 58.2175
3430 2 15.6249 4.7482 55.6147
3649 2 13.541 6.20323 57.2611
3630 2 15.6396 5.01543 58.5498
3650 2 15.1735 7.78172 58.4348
3450 2 15.4516 7.78515 55.614
4051 2 17.3133 6.50246 63.4538
3887 1 10.2412 12.7408 60.2466
3462 1 1.64004 11.1235 55.7386
3464 1 3.55288 9.76961 56.9683
3662 1 1.79959 10.9747 58.3541
3446 1 8.34346 7.77889 55.7558
3424 2 4.99885 7.86235 58.7003
3664 2 4.95824 10.9013 58.9655
3644 2 6.38372 9.70639 57.3504
3666 1 8.52535 10.7936 58.7829
3466 1 8.52915 10.9768 55.6783
3648 1 12.0239 7.92574 58.6219
3667 1 10.1923 9.10961 56.9224
3668 1 11.5377 11.1083 58.3936
3470 1 15.3045 11.0546 55.5297
3669 2 13.9753 9.57027 57.0872
3670 1 15.3007 11.1776 59.1091
3885 2 6.73626 12.5445 60.5644
3682 1 1.45774 13.8634 58.4962
3683 2 3.79075 12.5894 56.7711
3685 2 6.74476 12.8853 57.3648
3684 2 4.82679 14.2095 58.8032
3686 2 8.3999 14.6488 59.1026
3707 2 8.87144 14.1271 55.5389
3027 1 10.4801 3.23381 47.9749
3687 2 9.81118 13.0074 57.3124
3688 2 11.5455 14.5536 59.0935
4101 2 1.47891 14.227 62.0667
3503 1 3.36503 15.7383 53.9418
3490 1 15.247 14.0796 55.5202
3689 2 13.504 12.6795 57.1616
3690 2 15.3543 14.1156 59.1523
3884 1 5.13426 14.1987 61.8161
3883 1 3.10069 12.8803 60.1478
4021 1 1.87774 1.47084 61.81
3822 1 3.44545 3.06458 60.3365
3886 1 8.64775 14.4862 62.0619