

# Styles
	units        metal
	atom_style   atomic
	pair_style   eam/fs

# Neighbour list
	neighbor        2.0 bin
	neigh_modify    check yes


# Boundary conditions
	boundary p p p


# ----------------- Atom Definition Section -----------------

read_data "solid.data"
Reading data file ...
  orthogonal box = (-0.016319894 -0.026116788 -0.077393605) to (31.66632 31.676117 79.202394)
  2 by 2 by 10 MPI processor grid
  reading atom labelmap ...
  reading atoms ...
  5000 atoms
  reading velocities ...
  5000 velocities
  read_data CPU = 0.063 seconds

read_data "liquid.data" add append shift 37 0 0
Reading data file ...
WARNING: Non-zero image flags with growing box leads to bad coordinates (src/read_data.cpp:589)
  orthogonal box = (-0.016319894 -0.026116788 -0.077393605) to (68.66632 31.676117 79.202394)
  4 by 2 by 5 MPI processor grid
  reading atom labelmap ...
  reading atoms ...
  5000 atoms
  reading velocities ...
  5000 velocities
  read_data CPU = 0.041 seconds

# ----------------- Settings Section -----------------

include "coexistence.in.settings"
# ----- SETTINGS -----
# Forcefield
	pair_coeff * * W-Mo.eam.fs W Mo

# Collection of atoms
	group alloy type  1 2
10000 atoms in group alloy


# ----------------- Run Section -----------------

include "coexistence.in.run"
# Thermo output
	compute msd all msd

	thermo          1000
	thermo_style    custom step temp press pe ke etotal vol density enthalpy c_msd[1] c_msd[2] c_msd[3]
	thermo_modify   flush yes

# Dump configuration
	dump            d1 all custom 25000 coexistence_W-Mo.dump id type element x y z xu yu zu vx vy vz
	dump_modify     d1 element W Mo


# ----- EQUILIBRATION AT Ti -----
	minimize 1e-25 1e-25 5000 10000
Neighbor list info ...
  update: every = 1 steps, delay = 0 steps, check = yes
  max neighbors/atom: 2000, page size: 100000
  master list distance cutoff = 7.3
  ghost atom cutoff = 7.3
  binsize = 3.65, bins = 19 9 22
  1 neighbor lists, perpetual/occasional/extra = 1 0 0
  (1) pair eam/fs, perpetual
      attributes: half, newton on
      pair build: half/bin/atomonly/newton
      stencil: half/bin/3d
      bin: standard
Per MPI rank memory allocation (min/avg/max) = 4.855 | 4.862 | 4.87 Mbytes
   Step          Temp          Press          PotEng         KinEng         TotEng         Volume        Density        Enthalpy       c_msd[1]       c_msd[2]       c_msd[3]   
         0   3147.3145      737794.18     -12116.362      4067.8164     -8048.5456      172623.26      13.463879      71443.593      0              0              0            
      1000   3147.3145      10128.626     -76235.047      4067.8164     -72167.23       172623.26      13.463879     -71075.942      0.54472029     0.202136       0.20734378   
      2000   3147.3145     -180.17847     -76281.213      4067.8164     -72213.397      172623.26      13.463879     -72232.81       0.70364905     0.21621516     0.21542002   
      2307   3147.3145     -272.33714     -76281.705      4067.8164     -72213.888      172623.26      13.463879     -72243.231      0.70611361     0.21605454     0.21504173   
Loop time of 4.02996 on 40 procs for 2307 steps with 10000 atoms

95.9% CPU use with 40 MPI tasks x 1 OpenMP threads

Minimization stats:
  Stopping criterion = energy tolerance
  Energy initial, next-to-last, final = 
       -12116.36204945   -76281.704776988   -76281.704776988
  Force two-norm initial, final = 224306.09 4.4897918e-05
  Force max component initial, final = 94125.607 1.3486957e-05
  Final line search alpha, max atom move = 1 1.3486957e-05
  Iterations, force evaluations = 2307 4350

MPI task timing breakdown:
Section |  min time  |  avg time  |  max time  |%varavg| %total
---------------------------------------------------------------
Pair    | 2.5837     | 2.765      | 3.0641     |   8.7 | 68.61
Neigh   | 0.020445   | 0.023164   | 0.026693   |   1.3 |  0.57
Comm    | 0.62998    | 0.87507    | 1.0439     |  12.4 | 21.71
Output  | 0.00017603 | 0.00019264 | 0.0007394  |   0.0 |  0.00
Modify  | 0          | 0          | 0          |   0.0 |  0.00
Other   |            | 0.3665     |            |       |  9.09

Nlocal:            250 ave         278 max         230 min
Histogram: 4 8 5 5 8 0 0 1 4 5
Nghost:        1459.78 ave        1553 max        1344 min
Histogram: 6 4 0 6 4 0 0 2 12 6
Neighs:        12457.9 ave       15369 max       10337 min
Histogram: 8 2 2 15 3 0 0 0 4 6

Total # of neighbors = 498316
Ave neighs/atom = 49.8316
Neighbor list builds = 48
Dangerous builds = 0

	fix             feq all npt temp ${Ti} ${Ti} ${tdamp} aniso ${press} ${press} ${pdamp}
	fix             feq all npt temp 4100 ${Ti} ${tdamp} aniso ${press} ${press} ${pdamp}
	fix             feq all npt temp 4100 4100 ${tdamp} aniso ${press} ${press} ${pdamp}
	fix             feq all npt temp 4100 4100 0.1 aniso ${press} ${press} ${pdamp}
	fix             feq all npt temp 4100 4100 0.1 aniso 1 ${press} ${pdamp}
	fix             feq all npt temp 4100 4100 0.1 aniso 1 1 ${pdamp}
	fix             feq all npt temp 4100 4100 0.1 aniso 1 1 1
	run             1000000    # 1 ns
Per MPI rank memory allocation (min/avg/max) = 5.007 | 5.013 | 5.021 Mbytes
   Step          Temp          Press          PotEng         KinEng         TotEng         Volume        Density        Enthalpy       c_msd[1]       c_msd[2]       c_msd[3]   
      2307   3147.3145     -272.33714     -76281.705      4067.8164     -72213.888      172623.26      13.463879     -72243.231      0.70611361     0.21605454     0.21504173   
      3000   2847.3929     -3723.0039     -71753.16       3680.1761     -68072.984      178215.34      13.041406     -68487.106      2.789117       0.4854781      0.47712671   
      4000   4157.9543     -2296.1605     -68594.149      5374.0403     -63220.109      187759.03      12.378519     -63489.196      14.62877       1.9676649      2.0048209    
      5000   4129.175       1319.5593     -68650.54       5336.8439     -63313.696      186461.62      12.46465      -63160.126      16.66784       3.2684151      3.2438294    
      6000   4018.9615      1056.9924     -69008.251      5194.3959     -63813.855      183560.83      12.661627     -63692.756      11.204982      4.4725373      4.5593524    
      7000   4114.3449     -446.52677     -69125.293      5317.6764     -63807.617      183109.31      12.692849     -63858.649      8.6824609      5.7613967      5.7753008    
      8000   4089.8331      1425.6583     -69361.655      5285.9956     -64075.66       181842.21      12.781294     -63913.852      7.684797       6.6824352      6.7094717    
      9000   4070.2884     -2297.1317     -69380.629      5260.7346     -64119.895      181490.02      12.806097     -64380.107      7.5183012      7.5031889      8.0475352    
     10000   4112.642       1369.6657     -69437.918      5315.4755     -64122.443      180635.16      12.866702     -63968.022      7.7689624      8.3806499      8.9106371    
     11000   4070.3107      189.95532     -69501.178      5260.7634     -64240.415      180687.68      12.862962     -64218.992      8.2825278      9.2491766      8.8819612    
     12000   4107.0471     -3079.8185     -69646.443      5308.2441     -64338.199      180651.91      12.865509     -64685.461      8.7016052      9.8688518      9.9119103    
     13000   4068.0877     -1030.2027     -69744.643      5257.8902     -64486.753      179867.21      12.921637     -64602.408      9.4634963      9.9185646      10.938646    
     14000   4139.1503      2270.2446     -69775.027      5349.7366     -64425.29       179394.63      12.955676     -64171.093      10.047849      10.706355      10.681358    
     15000   4094.7399      1404.4701     -69775.28       5292.3374     -64482.943      179345.2       12.959247     -64325.729      10.091875      10.750244      11.508221    
     16000   4108.4857      159.77959     -69737.933      5310.1035     -64427.83       179534.69      12.945569     -64409.925      11.006269      11.418725      11.98037     
     17000   4065.4889      866.51209     -69835.273      5254.5313     -64580.742      179242.97      12.966638     -64483.801      11.578091      12.405332      11.842994    
     18000   4111.8047     -2103.3396     -69849.33       5314.3932     -64534.937      179486.45      12.949048     -64770.567      11.75242       12.474413      12.719415    
     19000   4128.3931     -1299.5953     -69877.54       5335.8333     -64541.707      179400.08      12.955283     -64687.226      11.392966      12.437081      12.859575    
     20000   4117.4187     -3643.613      -69772.682      5321.6491     -64451.032      179730.55      12.931462     -64859.769      11.874425      13.068483      12.939102    
     21000   4111.412      -1861.6408     -69941.688      5313.8857     -64627.802      179004.07      12.983943     -64835.795      12.780231      13.124881      13.691848    
     22000   4149.1673     -460.15543     -69915.81       5362.6833     -64553.126      179067.88      12.979317     -64604.556      13.769628      13.684326      14.147026    
     23000   4085.3201     -2960.0134     -69901.602      5280.1626     -64621.44       179114.27      12.975956     -64952.352      14.296816      14.49518       13.972672    
     24000   4087.879      -1759.8356     -69981.784      5283.4699     -64698.314      178948.78      12.987955     -64894.872      14.059835      14.337302      14.50408     
     25000   4146.6265      860.15178     -69925.406      5359.3994     -64566.007      178842.49      12.995675     -64469.993      15.181995      14.626628      15.169189    
     26000   4107.2071      1568.2396     -69871.87       5308.451      -64563.419      178882.75      12.99275      -64388.325      13.785966      14.829506      14.286766    
     27000   4149.0339      1208.3566     -69995.366      5362.5109     -64632.855      178587         13.014266     -64498.165      15.698012      15.504478      15.089983    
     28000   4109.4753     -1021.3585     -69962.285      5311.3825     -64650.902      178847.23      12.99533      -64764.914      15.402551      15.590291      15.55163     
     29000   4046.2058     -4085.6461     -70044.028      5229.6085     -64814.42       178922.58      12.989857     -65270.683      16.178285      15.970677      15.937213    
     30000   4120.0686      723.59587     -70110.919      5325.0741     -64785.845      178193.71      13.04299      -64705.367      16.968497      16.565434      15.723456    
     31000   4122.7086      1845.6638     -70055.296      5328.4862     -64726.81       178369.19      13.030158     -64521.333      16.514996      16.324208      16.378922    
     32000   4102.6493      3845.2998     -70120.16       5302.5601     -64817.6        178183.74      13.043719     -64389.95       17.109114      16.937499      16.282344    
     33000   4106.7063     -1646.9786     -70159.822      5307.8037     -64852.018      178418.16      13.026581     -65035.426      16.245144      16.539545      16.797261    
     34000   4131.8656     -2064.1303     -70168.589      5340.3213     -64828.268      178584.74      13.014431     -65058.344      16.794413      17.23678       16.85816     
     35000   4139.7947     -1277.9693     -70178.582      5350.5695     -64828.012      178520.54      13.019111     -64970.409      15.950605      16.838973      17.218004    
     36000   4069.6867      420.28306     -70183.215      5259.9569     -64923.258      178173.25      13.044488     -64876.52       17.933043      17.975272      17.246312    
     37000   4056.5463      1299.7841     -70194.811      5242.9732     -64951.838      178044.19      13.053943     -64807.397      17.63672       18.166002      17.296988    
     38000   4061.9797     -839.99797     -70223.778      5249.9958     -64973.782      178077.21      13.051523     -65067.145      17.972667      18.144379      17.994385    
     39000   4117.1092      814.23837     -70118.776      5321.2492     -64797.527      178268.48      13.037519     -64706.93       18.33646       19.187911      17.680497    
     40000   4076.3957     -307.6828      -70189.383      5268.6281     -64920.755      178271.73      13.037281     -64954.991      16.875386      18.694061      17.817963    
     41000   4123.6938      949.39029     -70095.571      5329.7596     -64765.811      178539.19      13.017751     -64660.016      19.398886      19.73059       18.524219    
     42000   4107.7635      3016.2253     -70146.591      5309.1701     -64837.421      178049.31      13.053568     -64502.229      18.379632      19.678203      18.405453    
     43000   4086.9032      2261.2693     -70098.136      5282.2087     -64815.927      178318.73      13.033845     -64564.253      19.668144      19.935234      19.124528    
     44000   4144.8621      1167.8857     -70210.744      5357.119      -64853.625      177972.32      13.059215     -64723.895      19.128374      19.715438      19.239269    
     45000   4115.8951      4941.422      -70217.592      5319.68       -64897.912      177800.1       13.071864     -64349.542      20.006573      20.101468      19.547835    
     46000   4121.5141     -2958.9034     -70204.548      5326.9423     -64877.605      178548.79      13.017051     -65207.35       19.120903      19.98483       19.956628    
     47000   4140.6728     -2053.5987     -70227.886      5351.7045     -64876.182      178390.78      13.028581     -65104.835      19.233733      20.131407      20.096134    
     48000   4091.5937      2998.4256     -70204.106      5288.2711     -64915.835      177942.05      13.061436     -64582.822      19.732659      20.300818      19.965657    
     49000   4086.6874      952.41397     -70299.672      5281.9298     -65017.743      177797.09      13.072085     -64912.051      20.436666      20.640872      20.379219    
     50000   4069.0513      535.3404      -70145.603      5259.1357     -64886.467      178461         13.023455     -64826.838      19.661035      20.760288      20.300154    
     51000   4103.015       1574.294      -70252.336      5303.0328     -64949.303      178192.3       13.043093     -64774.212      19.97365       20.817251      20.541295    
     52000   4101.9898      234.62371     -70102.279      5301.7077     -64800.572      178337         13.03251      -64774.456      20.953483      21.659127      20.9655      
     53000   4103.0165      56.856413     -70238.657      5303.0347     -64935.622      178235.67      13.039919     -64929.297      20.683715      21.90898       21.182617    
     54000   4115.8276      1714.2879     -70364.966      5319.5927     -65045.373      177714.16      13.078185     -64855.223      21.195042      22.125175      21.150901    
     55000   4114.3824      3202.3698     -70277.008      5317.7248     -64959.283      177759.79      13.074829     -64603.983      21.70827       22.928632      21.025231    
     56000   4098.3484     -205.70664     -70276.637      5297.0013     -64979.636      178104.01      13.049559     -65002.503      21.941659      22.462395      22.398177    
     57000   4103.8228     -2426.7945     -70382.564      5304.0768     -65078.487      178095.35      13.050193     -65348.245      20.958182      22.381745      22.156456    
     58000   4068.2731     -42.984602     -70292.259      5258.1299     -65034.129      178006.91      13.056677     -65038.905      21.416326      23.076652      21.82688     
     59000   4109.5593     -6839.9159     -70136.571      5311.491      -64825.08       178983.08      12.985466     -65589.184      21.230924      22.94981       22.700199    
     60000   4085.791      -2746.9643     -70267.381      5280.7712     -64986.61       178209.25      13.041853     -65292.153      22.107556      23.096878      23.034389    
     61000   4117.8156      4490.5587     -70349.328      5322.1621     -65027.166      177456.04      13.097209     -64529.795      22.047376      22.633825      23.124386    
     62000   4106.1266     -72.99591      -70266.859      5307.0544     -64959.805      177885.46      13.065591     -64967.909      22.040828      23.439309      22.749311    
     63000   4056.2997     -1244.6021     -70166.94       5242.6546     -64924.286      178271.72      13.037283     -65062.771      22.468272      23.894165      23.226036    
     64000   4122.5016     -1749.6145     -70229.966      5328.2187     -64901.747      178152.68      13.045994     -65096.294      22.801205      23.708018      24.237689    
     65000   4069.6887      1526.363      -70225.734      5259.9594     -64965.774      177915.89      13.063357     -64796.277      22.860506      24.061317      24.01209     
     66000   4071.3972      3359.0259     -70107.464      5262.1676     -64845.297      177952.95      13.060636     -64472.211      24.082228      24.648147      24.410219    
     67000   4082.3969     -1525.5381     -70149.312      5276.3845     -64872.927      178557.39      13.016425     -65042.943      22.563393      24.375139      24.539363    
     68000   4146.8001     -1207.111      -70166.012      5359.6238     -64806.388      178200.82      13.042469     -64940.648      23.618312      25.093288      24.529373    
     69000   4137.429       4184.5321     -70339.26       5347.5119     -64991.748      177617.68      13.08529      -64527.85       24.972021      25.384793      24.733056    
     70000   4139.8791     -3564.7577     -70289.314      5350.6786     -64938.635      178149.86      13.0462       -65335.009      23.062882      25.076007      24.79901     
     71000   4045.7085      3859.5291     -70333.844      5228.9657     -65104.878      177560.64      13.089493     -64677.147      24.349438      24.951024      25.398293    
     72000   4121.7012      360.5327      -70355.408      5327.1842     -65028.224      177727.61      13.077196     -64988.231      23.922639      25.034153      25.408063    
     73000   4108.0751     -10115.995     -70282.001      5309.5728     -64972.429      178965.74      12.986725     -66102.402      24.116002      25.899141      25.828724    
     74000   4082.4513     -1101.203      -70442.603      5276.4548     -65166.148      177641.57      13.08353      -65288.244      25.008854      25.684272      26.290703    
     75000   4142.3072      3652.6885     -70481.725      5353.8168     -65127.908      177045.75      13.12756      -64724.274      25.809087      25.911311      26.425084    
     76000   4096.0185     -1047.463      -70493.375      5293.99       -65199.385      177530.39      13.091723     -65315.45       26.179048      26.125001      26.760902    
     77000   4038.9902     -6921.3682     -70554.878      5220.2824     -65334.596      177641.48      13.083536     -66102.003      24.499739      26.371751      26.132136    
     78000   4127.5247      1076.7526     -70526.901      5334.7109     -65192.19       177420.58      13.099826     -65072.954      26.143534      26.871575      26.671961    
     79000   4110.2548      2114.8354     -70556.008      5312.39       -65243.618      177032.69      13.128529     -65009.939      25.203908      26.313291      27.014752    
     80000   4089.6399     -1013.7492     -70608.35       5285.7458     -65322.604      177178.86      13.117698     -65434.711      26.565432      26.970126      27.063599    
     81000   4032.9283      2162.1083     -70591.179      5212.4477     -65378.731      177065.76      13.126077     -65139.784      25.83941       26.792209      27.005234    
     82000   4085.1222      10040.013     -70708.336      5279.9068     -65428.429      176124.08      13.196258     -64324.75       26.717271      27.106456      26.85525     
     83000   4134.3512     -1331.1727     -70680.325      5343.5339     -65336.791      177053.87      13.126958     -65483.897      26.573185      27.020565      27.76122     
     84000   4098.7135     -3599.9648     -70729.248      5297.4732     -65431.775      177207.42      13.115584     -65829.946      27.079008      27.232218      28.237033    
     85000   4106.4728      2888.122      -70675.517      5307.5019     -65368.015      176843.51      13.142573     -65049.232      27.197255      27.723107      27.758302    
     86000   4096.6625     -217.00922     -70723.247      5294.8224     -65428.425      176808.32      13.145189     -65452.373      27.751438      27.32235       28.880983    
     87000   4142.0663     -1420.9675     -70796.031      5353.5055     -65442.526      176698.42      13.153365     -65599.239      27.065507      27.597275      28.251928    
     88000   4085.895      -1001.7444     -70931.008      5280.9056     -65650.102      176463.44      13.17088      -65760.434      29.211234      28.072013      28.487027    
     89000   4071.8417      1830.224      -70868.713      5262.7421     -65605.971      176332.24      13.18068      -65404.54       28.160852      27.879262      28.501966    
     90000   4090.5226      609.86418     -70909.493      5286.8866     -65622.606      176368.91      13.177939     -65555.472      28.815259      28.505145      28.394741    
     91000   4092.857       385.22118     -71006.986      5289.9039     -65717.082      176088.54      13.198921     -65674.744      28.69588       28.098554      28.721601    
     92000   4118.6171     -2217.6989     -71081.03       5323.198      -65757.832      176351.1       13.17927      -66001.933      28.73279       28.890052      28.238894    
     93000   4058.4659     -797.92654     -71114.709      5245.4543     -65869.255      175907.8       13.212483     -65956.862      29.245211      28.398281      28.946672    
     94000   4099.2485      4984.6882     -71240.94       5298.1647     -65942.775      175300.62      13.258246     -65397.38       29.850156      28.900598      28.365775    
     95000   4118.5131     -843.15937     -71305.894      5323.0636     -65982.831      175484.87      13.244325     -66075.181      29.363321      28.47448       29.063157    
     96000   4084.2217     -3305.5923     -71331.72       5278.743      -66052.977      175745.72      13.224668     -66415.573      29.754111      29.080924      28.782518    
     97000   4102.1393      609.87731     -71379.956      5301.901      -66078.055      175127.44      13.271357     -66011.392      30.844954      29.18994       28.871126    
     98000   4086.0997      56.670951     -71457.448      5281.1702     -66176.278      175188.77      13.266711     -66170.081      31.340834      28.861826      29.463808    
     99000   4112.6227     -2562.7272     -71334.503      5315.4504     -66019.053      175557.36      13.238857     -66299.862      31.657438      29.235792      29.468921    
    100000   4127.5113     -176.61372     -71581.551      5334.6936     -66246.858      174885.97      13.289681     -66266.136      29.852706      28.624791      29.161033    
    101000   4071.9024      2031.4515     -71624.791      5262.8206     -66361.97       174656.65      13.30713      -66140.517      32.607435      29.218569      29.389551    
    102000   4092.8467     -1072.9505     -71456.04       5289.8905     -66166.15       175000.4       13.280991     -66283.344      30.510357      28.966887      29.173938    
    103000   4114.9533     -1948.8738     -71606.63       5318.4627     -66288.167      174814.36      13.295125     -66500.81       31.958898      28.930576      29.640046    
    104000   4129.8143      4531.3198     -71694.655      5337.6701     -66356.985      174194.76      13.342415     -65864.323      32.376064      29.065027      29.444429    
    105000   4155.6203     -2517.7445     -71740.402      5371.0237     -66369.378      174783.17      13.297497     -66644.042      32.157454      29.350608      29.368804    
    106000   4090.6197     -5993.2189     -71720.058      5287.0121     -66433.045      175060.23      13.276452     -67087.889      32.132582      29.067085      30.03355     
    107000   4091.871       203.23346     -71671.769      5288.6295     -66383.14       174609.2       13.310746     -66360.991      31.954782      29.186564      29.771249    
    108000   4109.0097      2130.9625     -71616.48       5310.7807     -66305.699      174536.38      13.3163       -66073.558      31.669775      29.136952      29.389429    
    109000   4071.3397      1325.2833     -71727.672      5262.0933     -66465.579      174502.79      13.318863     -66321.234      32.502886      29.556746      29.166535    
    110000   4055.9233     -371.24962     -71797.984      5242.1681     -66555.816      174384.49      13.327898     -66596.223      32.814742      28.892137      30.15803     
    111000   4113.7631      1597.1087     -71632.335      5316.9244     -66315.411      174653.77      13.307349     -66141.309      32.048074      29.1249        29.741019    
    112000   4036.2882     -725.9261      -71635.786      5216.7902     -66418.995      174724.51      13.301962     -66498.161      33.214741      29.75863       29.520444    
    113000   4123.7511      1302.3403     -71722.358      5329.8336     -66392.524      174447.79      13.323062     -66250.723      31.105448      28.631313      29.989784    
    114000   4114.2981     -1198.9001     -71692.346      5317.6158     -66374.73       174646.76      13.307884     -66505.417      33.237281      29.58279       29.839187    
    115000   4050.6991     -360.17774     -71802.709      5235.4159     -66567.293      174425.82      13.32474      -66606.504      31.151896      29.088923      29.407452    
    116000   4102.1814     -2017.6774     -71718.443      5301.9554     -66416.488      174626.86      13.3094       -66636.402      33.829769      29.500903      30.08593     
    117000   4094.4333     -5115.9809     -71747.657      5291.9411     -66455.716      174799.6       13.296248     -67013.876      30.821881      29.367746      29.248864    
    118000   4116.8386      3316.1858     -71818.143      5320.8994     -66497.244      174206.98      13.341479     -66136.67       33.923484      29.276694      30.09884     
    119000   4055.6125      83.705523     -71829.086      5241.7663     -66587.319      174318.38      13.332953     -66578.212      33.10009       29.397899      29.924693    
    120000   4104.2459      1769.5809     -71678.502      5304.6237     -66373.879      174367.89      13.329167     -66181.292      33.536717      29.658997      29.663454    
    121000   4116.8062      2398.8855     -71734.451      5320.8575     -66413.594      174242.39      13.338768     -66152.706      31.713003      28.881655      29.939371    
    122000   4092.4561      1190.2295     -71828.249      5289.3857     -66538.863      174156.35      13.345358     -66409.486      32.456087      29.626809      29.258937    
    123000   4120.6542     -2806.3996     -71740.817      5325.831      -66414.986      174656.38      13.307151     -66720.917      30.939898      29.101404      29.745816    
    124000   4096.8598      2337.107      -71710.265      5295.0773     -66415.187      174274.32      13.336323     -66160.972      32.040052      29.342091      29.53148     
    125000   4148.5677      4081.8322     -71824.997      5361.9084     -66463.088      173949.89      13.361197     -66019.92       33.08469       29.589634      29.612798    
    126000   4042.721      -2440.9218     -71775.729      5225.1044     -66550.625      174533.4       13.316527     -66816.527      32.23435       28.917713      30.255044    
    127000   4105.5468     -1135.5685     -71883.39       5306.305      -66577.085      174390.88      13.32741      -66700.687      34.015209      29.905525      29.566179    
    128000   4133.4576     -3148.424      -71804.629      5342.379      -66462.25       174509.51      13.31835      -66805.177      32.376548      29.399021      29.773543    
    129000   4144.5127     -647.84046     -71738.609      5356.6675     -66381.942      174509.02      13.318387     -66452.505      32.790629      29.315974      30.040879    
    130000   4078.6892     -163.86398     -71686.168      5271.5923     -66414.576      174516.06      13.31785      -66432.425      32.27245       29.498601      29.844146    
    131000   4055.2213      3326.5858     -71862.122      5241.2607     -66620.861      173950.45      13.361154     -66259.689      33.616036      29.914016      29.327517    
    132000   4123.8614     -1994.6377     -71788.886      5329.9762     -66458.91       174500.8       13.319015     -66676.156      32.851233      29.299054      30.2705      
    133000   4123.5884      418.18337     -71919.339      5329.6234     -66589.716      174003.4       13.357088     -66544.299      32.401652      30.062821      28.844496    
    134000   4141.1643     -334.79777     -71798.107      5352.3396     -66445.767      174315.29      13.33319      -66482.193      33.182748      29.570583      30.045455    
    135000   4077.556      -1912.8904     -71795.546      5270.1277     -66525.418      174403.41      13.326452     -66733.644      32.809274      29.612577      30.015673    
    136000   4135.2536     -5257.2056     -71691.382      5344.7003     -66346.681      174908.09      13.288        -66920.605      32.025817      29.58597       29.880319    
    137000   4066.1887      2085.1133     -71874.636      5255.4358     -66619.2        174042.46      13.35409      -66392.696      34.788842      29.69603       30.32897     
    138000   4094.851       785.15535     -71848.641      5292.481      -66556.16       174106.38      13.349188     -66470.839      32.961363      29.476799      29.815017    
    139000   4124.2607     -3196.7699     -71848.772      5330.4923     -66518.28       174395.91      13.327025     -66866.246      32.921247      29.447911      30.458018    
    140000   4100.9674     -4794.1557     -71853.688      5300.3864     -66553.302      174528.96      13.316866     -67075.541      31.738243      29.891517      29.297973    
    141000   4124.5044      445.62417     -71878.106      5330.8072     -66547.299      174129.83      13.34739      -66498.867      32.341095      29.166364      30.184739    
    142000   4143.1912      2140.1784     -71858.796      5354.9594     -66503.836      174048.34      13.353639     -66271.343      33.635888      29.98915       29.682864    
    143000   4104.3848      2143.4261     -71828.831      5304.8032     -66524.028      174033.03      13.354814     -66291.202      32.481728      29.485766      29.785423    
    144000   4153.8949     -2473.0564     -71884.902      5368.7936     -66516.108      174368.55      13.329117     -66785.257      34.574737      29.881546      30.171778    
    145000   4113.0711     -2539.03       -71894.858      5316.03       -66578.828      174358.58      13.329879     -66855.14       32.553309      29.605361      30.071691    
    146000   4125.8411      2096.0129     -71762.103      5332.5349     -66429.568      174182.9       13.343323     -66201.697      32.664517      29.922164      29.568636    
    147000   4116.3712      1277.2493     -71821.71       5320.2953     -66501.415      174142.93      13.346386     -66362.589      33.705871      29.496435      30.406921    
    148000   4082.4593     -2129.1715     -71909.003      5276.4652     -66632.538      174298.31      13.334488     -66864.167      32.842998      29.654169      30.144239    
    149000   4163.0493     -3543.9602     -71789.487      5380.6255     -66408.861      174524.03      13.317242     -66794.902      33.275787      29.898735      29.993563    
    150000   4083.2487      1629.0242     -71949.873      5277.4854     -66672.387      173829         13.370489     -66495.645      34.374974      29.481288      30.394219    
    151000   4105.5708      2732.1502     -71908.436      5306.3361     -66602.1        173870.67      13.367285     -66305.603      33.249147      29.481894      30.117603    
    152000   4100.6921     -739.99973     -71819.18       5300.0305     -66519.149      174287.11      13.335345     -66599.648      33.827385      30.071326      29.875305    
    153000   4085.8932     -1393.8084     -71885.54       5280.9033     -66604.637      174235.96      13.33926      -66756.213      31.433632      29.359187      29.840491    
    154000   4107.6409     -993.83743     -71849.612      5309.0116     -66540.6        174235.51      13.339294     -66648.679      33.857138      30.145175      29.865893    
    155000   4109.4311     -4014.849      -71791.995      5311.3254     -66480.67       174605.12      13.311057     -66918.208      33.51285       29.887926      30.230512    
    156000   4097.3109     -3883.3479     -71895.154      5295.6604     -66599.493      174383.46      13.327977     -67022.163      31.757015      29.715873      29.671635    
    157000   4082.2708     -2191.7011     -71874.17       5276.2214     -66597.949      174148         13.345997     -66836.175      34.55658       30.450565      29.728377    
    158000   4111.1006      1157.4488     -71780.49       5313.4832     -66467.007      174210.38      13.341219     -66341.154      33.516317      29.805955      30.131887    
    159000   4130.2968     -839.88711     -71791.727      5338.2937     -66453.434      174368.5       13.329121     -66544.84       33.336142      30.185         29.775       
    160000   4141.5885     -1046.2338     -71747.905      5352.8879     -66395.017      174440.61      13.32361      -66508.928      34.577902      29.702382      30.9047      
    161000   4136.0707      616.07475     -71910.422      5345.7564     -66564.665      174176.4       13.343822     -66497.69       32.328837      29.914379      29.508056    
    162000   4176.0365      599.20144     -71816.533      5397.411      -66419.122      174283.73      13.335604     -66353.941      34.722757      29.89391       30.58776     
    163000   4117.8026     -4482.0896     -71782.11       5322.1454     -66459.965      174629.36      13.309209     -66948.49       32.00624       30.075285      29.626804    
    164000   4143.4026     -47.68235      -71965.982      5355.2327     -66610.75       174024.67      13.355456     -66615.929      33.773307      29.65445       30.355421    
    165000   4117.9885      1039.9543     -71798.07       5322.3856     -66475.684      174141.95      13.346461     -66362.651      34.225536      30.081749      30.190616    
    166000   4094.3174      941.05346     -71888.313      5291.7913     -66596.522      174067.13      13.352198     -66494.282      33.318185      29.926716      30.02342     
    167000   4076.87       -1035.321      -71825.317      5269.2411     -66556.076      174249.43      13.338229     -66668.675      33.814253      29.644887      30.604795    
    168000   4138.4171      4222.2078     -71839.892      5348.789      -66491.103      173850.55      13.368831     -66032.956      35.679402      30.404171      30.048306    
    169000   4113.4983     -986.03997     -71874.249      5316.5821     -66557.667      174198.04      13.342163     -66664.875      32.944909      29.644367      30.287213    
    170000   4084.1307      4258.9657     -71871.271      5278.6253     -66592.646      173712.96      13.379421     -66130.876      33.624618      29.832734      29.869716    
    171000   4091.6975      1327.032      -71838.281      5288.4052     -66549.876      174096.79      13.349923     -66405.677      33.620467      29.960949      30.10992     
    172000   4070.2785     -1177.3392     -71943.612      5260.7218     -66682.89       174177.7       13.343722     -66810.882      33.514413      29.546103      30.715192    
    173000   4114.611      -581.07333     -71819.619      5318.0202     -66501.599      174302.88      13.334138     -66564.815      32.980518      30.170964      29.769167    
    174000   4097.9957     -46.078833     -71777.049      5296.5455     -66480.504      174286.58      13.335386     -66485.516      33.725129      30.013158      30.304867    
    175000   4077.5814      3748.7206     -71828.399      5270.1605     -66558.238      173818.67      13.371283     -66151.543      32.665353      29.305265      30.408993    
    176000   4087.1783      2966.6764     -71895.34       5282.5642     -66612.776      173843.46      13.369377     -66290.878      34.213309      30.109695      30.072291    
    177000   4035.1753     -999.23254     -71796.744      5215.3519     -66581.392      174175.2       13.343913     -66690.02       33.917934      30.049092      30.290082    
    178000   4104.321      -8719.8784     -71782.479      5304.7207     -66477.758      174891.26      13.289279     -67429.607      32.989025      30.104301      30.396216    
    179000   4069.631       323.66986     -71829.768      5259.8849     -66569.883      174237.35      13.339153     -66534.684      32.834101      29.973933      30.020842    
    180000   4122.8937      1334.8463     -71828.187      5328.7254     -66499.462      174022.63      13.355612     -66354.476      35.328672      30.032003      30.707037    
    181000   4077.123      -1165.7407     -71786.651      5269.5681     -66517.083      174401.88      13.326569     -66643.977      31.891897      29.933341      29.877128    
    182000   4138.8534     -3265.7591     -71742.319      5349.353      -66392.966      174471.4       13.321259     -66748.596      33.653789      30.02517       30.503949    
    183000   4172.7553      4480.1564     -71757          5393.1702     -66363.83       174037.92      13.354438     -65877.169      32.927235      30.06455       29.89857     
    184000   4043.5342     -3271.0789     -71850.568      5226.1556     -66624.412      174366.97      13.329237     -66980.408      32.782365      30.011997      30.300915    
    185000   4076.5018     -534.06238     -71891.742      5268.7653     -66622.977      174065.9       13.352292     -66680.999      33.381294      29.890817      30.29653     
    186000   4110.5492     -1130.8469     -71852.405      5312.7706     -66539.634      174248.14      13.338328     -66662.622      33.782592      30.424332      30.088097    
    187000   4132.2174      275.34742     -71799.128      5340.776      -66458.352      174200.81      13.341952     -66428.414      33.939947      29.772881      30.931111    
    188000   4076.782      -333.64129     -71879.196      5269.1273     -66610.069      174037.96      13.354436     -66646.311      33.728682      30.224919      30.104713    
    189000   4133.5541      2576.65       -71841.124      5342.5037     -66498.621      173949.9       13.361197     -66218.871      34.400906      30.130337      30.465498    
    190000   4106.0238      2476.9422     -71890.786      5306.9216     -66583.864      173770.3       13.375005     -66315.218      33.200572      29.989915      30.111083    
    191000   4113.7275     -165.97655     -71970.099      5316.8784     -66653.221      174024.27      13.355486     -66671.249      34.543667      30.268483      30.348635    
    192000   4035.6865     -2365.9741     -71951.545      5216.0126     -66735.532      174101.96      13.349527     -66992.633      34.248196      30.512839      30.189082    
    193000   4097.6318     -1635.7918     -71874.156      5296.0752     -66578.081      174189.16      13.342844     -66755.924      32.971345      29.728397      30.637139    
    194000   4083.8186      400.34494     -71909.752      5278.222      -66631.53       173842.85      13.369424     -66588.091      34.956081      30.538294      30.053084    
    195000   4185.8671      2548.7294     -71887.141      5410.1169     -66477.025      173961.36      13.360316     -66200.288      32.990759      29.918149      30.34764     
    196000   4079.9429     -2520.5108     -71923.223      5273.2128     -66650.01       174120.2       13.348128     -66923.932      33.670564      29.85172       30.703289    
    197000   4070.2312     -2208.7053     -71929.603      5260.6606     -66668.942      174204.52      13.341667     -66909.095      33.546748      30.297666      30.019839    
    198000   4113.7483     -115.46637     -71893.474      5316.9053     -66576.569      174104.46      13.349335     -66589.116      33.400906      29.808121      30.630249    
    199000   4105.9174      5755.1186     -71936.074      5306.7841     -66629.29       173497.28      13.396053     -66006.077      34.483826      30.126823      30.156463    
    200000   4082.652       1747.5102     -71918.291      5276.7142     -66641.577      173896.3       13.365314     -66451.907      33.498024      30.252943      29.899937    
    201000   4146.5013     -4755.8691     -71834.907      5359.2376     -66475.669      174560.97      13.314424     -66993.833      33.514576      30.211547      30.506889    
    202000   4067.1747     -3054.7599     -71878.7        5256.7101     -66621.989      174228.5       13.339831     -66954.179      34.195517      30.064108      30.72532     
    203000   4130.8358      2970.7834     -71902.263      5338.9904     -66563.272      173967.42      13.35985      -66240.699      32.637874      29.975286      29.9536      
    204000   4105.3169      2061.7883     -71972.228      5306.0079     -66666.22       173671.28      13.382631     -66442.728      35.019536      30.394863      30.160615    
    205000   4136.1338     -2788.3923     -71873.916      5345.8379     -66528.078      174351.83      13.330395     -66831.516      33.429945      30.07084       30.57144     
    206000   4055.1804     -1783.3477     -71945.06       5241.2079     -66703.852      174190.51      13.342741     -66897.739      32.838593      30.19919       30.068053    
    207000   4136.0898     -4089.4965     -71840.57       5345.7811     -66494.789      174508.91      13.318396     -66940.217      33.726022      30.370075      30.35899     
    208000   4103.5209      5683.4459     -71938.21       5303.6867     -66634.523      173522.41      13.394113     -66018.982      35.052574      30.198422      30.428544    
    209000   4093.482       1622.1493     -71914.744      5290.7117     -66624.032      173980.04      13.358881     -66447.883      34.171017      30.451619      30.103919    
    210000   4032.0636     -3342.7063     -71996.015      5211.3301     -66784.684      174081.07      13.351129     -67147.879      34.161662      30.201972      30.580587    
    211000   4160.9236      911.75325     -71953.912      5377.878      -66576.034      173839.78      13.36966      -66477.106      34.442962      30.18395       30.42236     
    212000   4097.6643      4311.9468     -72015.579      5296.1171     -66719.462      173446.21      13.399997     -66252.665      33.02787       29.657617      30.370645    
    213000   4102.5776     -5592.616      -71856.413      5302.4674     -66553.946      174399.32      13.326765     -67162.71       34.547918      30.973901      30.098724    
    214000   4100.1339     -445.05916     -71952.618      5299.3091     -66653.309      174180.07      13.34354      -66701.693      33.44929       29.989439      30.3963      
    215000   4118.7376     -1311.5817     -71925.175      5323.3538     -66601.821      174084.25      13.350885     -66744.331      33.265969      30.685572      29.713231    
    216000   4045.8296      138.80858     -71929.171      5229.1222     -66700.049      173992.34      13.357937     -66684.975      34.938987      30.178454      30.771458    
    217000   4122.0621     -551.7322      -71903.675      5327.6506     -66576.025      174091.26      13.350347     -66635.975      33.026245      30.414787      29.957672    
    218000   4085.9197      2791.931      -71915.128      5280.9376     -66634.19       173817.36      13.371384     -66331.298      35.378661      29.992557      31.045186    
    219000   4127.4585     -938.67822     -71854.984      5334.6254     -66520.359      174202.76      13.341802     -66622.42       33.35357       30.448917      30.04744     
    220000   4093.279       505.10685     -71942.68       5290.4493     -66652.231      173933.73      13.362438     -66597.396      34.854288      30.34606       30.551947    
    221000   4089.7222     -5999.938      -71870.345      5285.8522     -66584.493      174482.51      13.320411     -67237.907      33.491017      30.714895      30.020601    
    222000   4123.326       387.05894     -71891.851      5329.2842     -66562.567      174144.72      13.346249     -66520.496      32.976767      30.045278      30.557481    
    223000   4089.1346      5569.0653     -72001.688      5285.0927     -66716.595      173326.36      13.409263     -66114.123      35.33574       30.234277      30.386475    
    224000   4123.4643     -195.79834     -71948.702      5329.4629     -66619.239      173951.67      13.36106      -66640.498      33.59329       30.387376      30.264066    
    225000   4078.2225     -5020.1893     -71927.275      5270.9892     -66656.286      174241.85      13.338809     -67202.247      34.974562      30.375647      30.842549    
    226000   4099.1908      3523.9388     -71990.477      5298.0901     -66692.387      173671.91      13.382583     -66310.401      34.309091      30.378987      30.193575    
    227000   4071.9034      1037.1919     -71938.302      5262.8219     -66675.48       173959.45      13.360463     -66562.865      33.078331      30.089355      30.440571    
    228000   4115.2148      1108.6895     -72015.205      5318.8007     -66696.404      173805.39      13.372305     -66576.133      34.426741      30.603797      30.087657    
    229000   4076.6567     -2275.2808     -71943.253      5268.9654     -66674.287      174126.09      13.347677     -66921.567      34.000695      30.417596      30.501098    
    230000   4108.2733      238.00286     -71897.604      5309.829      -66587.775      174057.41      13.352943     -66561.919      34.436956      30.320535      30.602675    
    231000   4088.6848      3361.8971     -71989.612      5284.5115     -66705.101      173568.16      13.390583     -66340.897      34.37693       30.55451       29.968189    
    232000   4063.592      -7039.9263     -71984.594      5252.0797     -66732.515      174395.69      13.327042     -67498.805      33.108895      30.203117      30.432295    
    233000   4063.281      -1816.3376     -71909.839      5251.6777     -66658.161      174142.21      13.346441     -66855.581      33.755156      30.503795      30.403951    
    234000   4071.3842      2514.8854     -71917.475      5262.1508     -66655.325      173670.17      13.382717     -66382.72       33.882301      30.450215      29.992625    
    235000   4140.2993      1257.1827     -72017.4        5351.2217     -66666.179      173723.68      13.378595     -66529.863      34.928766      30.441282      30.31623     
    236000   4039.2116     -653.29941     -71909.104      5220.5686     -66688.535      173995.14      13.357722     -66759.483      33.863935      30.953376      29.890188    
    237000   4121.6551     -3863.2149     -72091.294      5327.1246     -66764.169      173989.99      13.358117     -67183.699      34.72223       30.229627      30.81415     
    238000   4099.8386     -3004.1702     -71966.531      5298.9274     -66667.603      174081.86      13.351068     -66994.017      34.131298      30.840039      30.034483    
    239000   4135.8178      6733.1633     -71910.807      5345.4294     -66565.378      173514.23      13.394744     -65836.183      34.96203       30.471859      30.258374    
    240000   4131.3667     -1027.2017     -72070.135      5339.6766     -66730.458      173769.31      13.375082     -66841.867      34.120597      30.664649      29.939044    
    241000   4153.8477     -2080.7134     -71946.808      5368.7327     -66578.075      174160.32      13.345053     -66804.253      33.947418      30.258226      30.673425    
    242000   4089.9775     -3968.6273     -71946.94       5286.1821     -66660.757      174166.34      13.344592     -67092.171      33.862657      30.418172      30.41587     
    243000   4116.0026     -874.57132     -71919.255      5319.8189     -66599.436      173998.51      13.357463     -66694.416      34.137186      30.374089      30.42003     
    244000   4123.9984      2888.0713     -71956.271      5330.1532     -66626.118      173652.83      13.384053     -66313.093      34.585968      30.843289      29.773956    
    245000   4096.6826     -313.41771     -71962.667      5294.8483     -66667.818      173942.09      13.361796     -66701.845      33.375692      30.130887      30.385622    
    246000   4077.4396     -1937.2307     -72065.757      5269.9773     -66795.779      173867.1       13.367559     -67006.006      34.57006       30.615375      30.112742    
    247000   4057.4873      2676.3267     -71926.385      5244.1895     -66682.196      173657.23      13.383714     -66392.113      34.24523       30.685336      30.05265     
    248000   4128.548      -103.21611     -71981.797      5336.0335     -66645.764      173933.97      13.36242      -66656.969      33.677627      30.085185      30.504904    
    249000   4093.1275     -2548.766      -71960.206      5290.2535     -66669.953      174060.15      13.352733     -66946.85       33.820642      30.871786      29.845033    
    250000   4076.4932      3836.7665     -72036.709      5268.7541     -66767.955      173469.45      13.398202     -66352.544      35.119947      30.225683      30.689109    
    251000   4115.8157     -773.99264     -71959.993      5319.5773     -66640.416      174046.78      13.353759     -66724.496      34.260416      30.500081      30.389005    
    252000   4084.1152     -416.87841     -72056.967      5278.6053     -66778.362      173787.3       13.373697     -66823.581      33.077423      30.324401      30.079357    
    253000   4107.4567      1797.7978     -72013.931      5308.7735     -66705.158      173677.78      13.382131     -66510.275      36.075343      30.573034      30.734832    
    254000   4099.1716     -3623.1311     -71962.798      5298.0653     -66664.733      174111.42      13.348802     -67058.465      33.001251      30.444728      30.027565    
    255000   4059.3237     -1247.8994     -71952.954      5246.563      -66706.391      173904.83      13.364659     -66841.841      34.560226      30.507605      30.351316    
    256000   4103.0215      2641.4677     -72016.47       5303.0411     -66713.429      173583.43      13.389405     -66427.246      35.336702      30.570323      30.491156    
    257000   4052.648      -364.60192     -71865.436      5237.9348     -66627.501      174023.79      13.355523     -66667.103      33.798158      30.088358      30.710241    
    258000   4104.0521     -5916.1659     -71996.71       5304.3732     -66692.337      174321.55      13.33271      -67336.033      34.793735      30.908602      30.417005    
    259000   4125.5923      1891.2764     -71866.543      5332.2133     -66534.33       174000.03      13.357346     -66328.933      34.178155      30.597472      30.273962    
    260000   4127.7068     -1936.5584     -71980.561      5334.9462     -66645.614      174183.06      13.343311     -66856.15       33.594655      30.227308      30.570157    
    261000   4035.9923     -486.76062     -72046.315      5216.4078     -66829.907      173784.08      13.373945     -66882.705      35.1449        30.866497      30.164914    
    262000   4105.3912      168.34594     -72005.032      5306.1039     -66698.929      173719.19      13.378941     -66680.675      33.642925      30.031441      30.476475    
    263000   4109.0583      534.6291      -71908.139      5310.8436     -66597.295      173903.6       13.364753     -66539.265      34.402339      30.719161      30.140313    
    264000   4090.6628     -3732.0582     -72037.324      5287.0679     -66750.256      173987.92      13.358276     -67155.538      33.59278       30.388592      30.271812    
    265000   4120.1124      3264.4886     -72025.815      5325.1307     -66700.684      173566.05      13.390745     -66347.038      35.350826      30.614079      30.39369     
    266000   4138.9659      494.74155     -71937.388      5349.4983     -66587.89       173967.76      13.359824     -66534.17       33.287026      30.444462      30.069161    
    267000   4147.2838     -230.87388     -72100.238      5360.249      -66739.989      173747.61      13.376752     -66765.026      35.372297      30.258102      31.091858    
    268000   4071.6738      421.84517     -71867.344      5262.5252     -66604.819      173953.02      13.360956     -66559.018      34.708791      30.748188      30.169224    
    269000   4136.7002      1500.8524     -71907.898      5346.5699     -66561.328      173915.52      13.363838     -66398.411      33.608138      30.205978      30.421743    
    270000   4102.7891     -6861.6434     -71906.144      5302.7409     -66603.403      174638.59      13.308506     -67351.328      32.819157      30.672077      30.253583    
    271000   4078.5979      750.12761     -72006.973      5271.4744     -66735.499      173705.74      13.379976     -66654.171      34.436494      30.414134      30.286534    
    272000   4153.4555     -1850.2483     -71971.928      5368.2257     -66603.703      174037.25      13.35449      -66804.687      33.11671       30.519335      30.086373    
    273000   4092.197       423.17812     -72043.434      5289.0509     -66754.383      173719.19      13.378941     -66708.499      34.487809      30.666889      30.115012    
    274000   4083.8718     -273.43193     -71881.421      5278.2908     -66603.13       174014.21      13.356258     -66632.828      35.416008      30.614677      30.850573    
    275000   4099.9508     -59.926286     -72028.152      5299.0725     -66729.08       173853.8       13.368582     -66735.583      32.867186      30.214865      30.17891     
    276000   4058.948       5215.2357     -72006.008      5246.0774     -66759.93       173388.37      13.404467     -66195.535      35.798281      30.560362      30.416281    
    277000   4087.8442      895.47069     -72054.471      5283.425      -66771.046      173664.19      13.383178     -66673.984      33.795227      30.254258      30.289788    
    278000   4076.1232      2332.8445     -71961.965      5268.2758     -66693.689      173761.55      13.375679     -66440.684      34.345799      30.115723      30.758699    
    279000   4078.5849     -526.11486     -72053.026      5271.4576     -66781.569      173716.34      13.37916      -66838.613      33.919578      30.662488      30.054931    
    280000   4124.6843      407.63057     -71986.985      5331.0398     -66655.946      173852.28      13.368699     -66611.714      34.838064      30.202281      30.801007    
    281000   4093.2618      2776.8059     -72002.237      5290.4271     -66711.81       173572.48      13.390249     -66410.984      35.20346       30.278033      30.837651    
    282000   4096.4305     -93.174406     -71869.506      5294.5225     -66574.983      174097.61      13.34986      -66585.108      33.548414      30.637677      30.159913    
    283000   4079.1716     -3988.1009     -71954.768      5272.2158     -66682.552      174178.97      13.343625     -67116.114      34.55174       30.523756      30.65596     
    284000   4055.766       1992.1084     -72036.408      5241.9648     -66794.443      173632.45      13.385625     -66578.553      34.408765      30.519979      30.326661    
    285000   4107.6841      6673.4469     -72000.478      5309.0675     -66691.41       173274.36      13.413287     -65969.681      34.767653      30.744805      29.927317    
    286000   4077.7144      2998.62       -71913.126      5270.3325     -66642.794      173775.7       13.37459      -66317.556      33.914108      30.158871      30.733772    
    287000   4034.4352     -2219.7412     -72029.264      5214.3952     -66814.869      173957.78      13.360591     -67055.879      34.643669      30.446922      30.792115    
    288000   4108.7873      5141.8712     -72032.353      5310.4933     -66721.859      173338.67      13.408311     -66165.563      34.140694      30.260623      30.334263    
    289000   4147.1028     -1309.8029     -71996.699      5360.015      -66636.684      173908.94      13.364343     -66778.857      34.523755      30.568069      30.506245    
    290000   4116.7357     -2445.0827     -71871.709      5320.7664     -66550.942      174167.13      13.344531     -66816.739      33.975647      30.555516      30.508145    
    291000   4096.2784      138.80348     -71935.38       5294.3259     -66641.054      173907.9       13.364423     -66625.987      33.927497      30.524481      30.345532    
    292000   4077.1351      762.30538     -72011.787      5269.5838     -66742.203      173739.95      13.377342     -66659.539      33.735906      30.275366      30.391358    
    293000   4075.4032      1065.7105     -71930.775      5267.3453     -66663.43       173799.2       13.372782     -66547.825      34.665546      30.414319      30.698361    
    294000   4152.4553      377.91233     -71939.583      5366.9329     -66572.65       173896.33      13.365312     -66531.633      32.875258      30.359854      30.029138    
    295000   4037.5109     -2869.4922     -71982.462      5218.3706     -66764.091      173878.98      13.366646     -67075.508      35.442111      30.864463      30.464605    
    296000   4120.0463     -2695.5137     -71998.463      5325.0453     -66673.417      173993.17      13.357874     -66966.145      33.224436      30.156211      30.65026     
    297000   4093.5193      4330.9913     -72055.653      5290.7599     -66764.893      173348.89      13.40752      -66296.298      33.835534      30.616639      29.848208    
    298000   4019.2004      2652.8088     -72017.784      5194.7048     -66823.079      173645.04      13.384654     -66535.566      36.015067      30.630816      30.829935    
    299000   4106.4417     -1837.2398     -72062.115      5307.4617     -66754.653      173973.71      13.359367     -66954.151      34.188485      30.48653       30.479869    
    300000   4035.9693      772.05765     -72029.26       5216.378      -66812.882      173619.99      13.386585     -66729.218      34.169587      30.700324      29.995239    
    301000   4172.6174      5079.3489     -72034.038      5392.9919     -66641.046      173527.99      13.393682     -66090.914      36.769173      30.364665      31.222184    
    302000   4069.4975     -1779.7947     -72030.873      5259.7123     -66771.161      173882.56      13.366371     -66964.32       34.116488      30.628576      30.309678    
    303000   4079.089      -5278.4268     -72048.503      5272.1091     -66776.394      174191.24      13.342685     -67350.273      34.546421      30.262112      31.11844     
    304000   4087.2054      1516.1987     -72072.473      5282.5993     -66789.873      173633.48      13.385545     -66625.558      34.182094      30.420138      30.290677    
    305000   4154.6701      3772.9944     -72050.852      5369.7956     -66681.056      173559.41      13.391257     -66272.338      34.628508      30.624263      30.26877     
    306000   4105.4504     -2271.047      -72033.87       5306.1805     -66727.69       173996.7       13.357603     -66974.326      33.641582      30.10657       30.860371    
    307000   4074.8165     -8227.2215     -71966.617      5266.587      -66700.03       174468.82      13.321456     -67595.933      33.899766      30.838526      30.358569    
    308000   4170.3997     -590.94032     -71878.548      5390.1256     -66488.423      174131.5       13.347262     -66552.648      34.134968      30.61483       30.517285    
    309000   4155.1746      1532.3697     -71981.246      5370.4476     -66610.798      173728.74      13.378206     -66444.639      34.876186      30.836521      30.187273    
    310000   4077.3561      3050.2465     -71984.334      5269.8693     -66714.465      173576.41      13.389946     -66384.008      33.425549      30.119203      30.413318    
    311000   4105.9831     -2129.7539     -72092.745      5306.869      -66785.876      173891.71      13.365667     -67017.028      35.569845      30.777336      30.618093    
    312000   4096.7036      73.828383     -72045.292      5294.8755     -66750.417      173718.87      13.378965     -66742.412      34.032044      30.225894      30.653365    
    313000   4050.928      -553.71874     -71988.494      5235.7118     -66752.782      173849.04      13.368948     -66812.865      34.852813      30.441876      30.593688    
    314000   4124.1507     -6127.0852     -71993.525      5330.3501     -66663.175      174170.56      13.344269     -67329.243      35.200685      31.200607      30.287546    
    315000   4087.6162      2439.3747     -72006.939      5283.1303     -66723.809      173628.89      13.385899     -66459.452      34.583298      30.38334       30.458864    
    316000   4083.3783      1009.5136     -71918.175      5277.653      -66640.522      173874.54      13.366987     -66530.966      34.560637      30.4437        30.679023    
    317000   4129.1142     -2995.7115     -71986.437      5336.7653     -66649.671      174108.4       13.349033     -66975.215      33.177436      30.806979      29.868686    
    318000   4119.6026      534.56733     -71926.624      5324.4718     -66602.152      173889.72      13.36582      -66544.134      35.202165      30.629571      30.614948    
    319000   4108.8018     -1238.8315     -72053.629      5310.5121     -66743.117      173751.37      13.376463     -66877.465      32.753439      30.214666      30.209112    
    320000   4088.0799      1074.8956     -72034.899      5283.7296     -66751.17       173666.03      13.383036     -66634.658      35.933678      30.993764      30.222453    
    321000   4049.7324     -297.01494     -71963.216      5234.1665     -66729.049      173876.93      13.366803     -66761.283      32.696795      30.178246      30.349556    
    322000   4137.4436     -1366.7044     -71980.368      5347.5308     -66632.837      174069.85      13.351989     -66781.324      34.806683      30.394386      30.800969    
    323000   4073.915      -2099.06       -72057.239      5265.4218     -66791.817      173828.26      13.370546     -67019.555      35.119142      30.594821      30.751751    
    324000   4115.2919      2528.131      -72044.554      5318.9003     -66725.654      173592.57      13.388699     -66451.736      33.078529      30.163764      30.233104    
    325000   4081.4172      2643.4314     -72117.342      5275.1182     -66842.224      173453.29      13.399451     -66556.044      36.715681      30.553957      31.082215    
    326000   4082.6122      2135.7022     -72042.36       5276.6627     -66765.698      173555.52      13.391557     -66534.348      34.777304      30.640805      30.381012    
    327000   4110.7535     -1087.7437     -72020.447      5313.0346     -66707.412      173884.03      13.366258     -66825.465      34.343255      30.472873      30.658768    
    328000   4018.7871     -5599.1958     -72078.245      5194.1705     -66884.074      174199.51      13.342051     -67492.857      34.710475      30.594287      30.766749    
    329000   4120.3293      133.16367     -72076.386      5325.4111     -66750.975      173629.21      13.385874     -66736.544      35.974111      30.828598      30.523572    
    330000   4055.891       1876.9982     -72006.326      5242.1263     -66764.199      173649.18      13.384335     -66560.764      34.052429      30.406201      30.384046    
    331000   4124.9178     -2838.4175     -71930.006      5331.3415     -66598.664      174126.18      13.34767      -66907.146      35.917071      30.60085       31.191118    
    332000   4136.8102      1193.8083     -72122.964      5346.7122     -66776.252      173647.17      13.384489     -66646.865      33.476826      30.32139       30.358005    
    333000   4148.3345     -2096.5185     -72052.884      5361.607      -66691.277      173884.68      13.366208     -66918.812      34.407859      30.720065      30.353693    
    334000   4121.7524     -2538.012      -72110.398      5327.2503     -66783.147      173787.14      13.373709     -67058.444      34.416992      30.869718      30.143486    
    335000   4100.7191      1789.9387     -71989.626      5300.0655     -66689.56       173635.07      13.385422     -66495.576      33.753505      30.284661      30.587035    
    336000   4134.5449     -309.91339     -71968.467      5343.7844     -66624.683      173963.93      13.360119     -66658.333      36.482691      30.817945      31.066185    
    337000   4058.2659      4280.8194     -72012.948      5245.1958     -66767.752      173493.12      13.396374     -66304.2        33.264254      30.619323      29.845329    
    338000   4086.4501     -5714.9867     -72073.055      5281.6231     -66791.432      174063.2       13.352499     -67412.318      34.988069      30.605192      30.894215    
    339000   4080.4387     -925.33729     -71900.961      5273.8536     -66627.107      174092.37      13.350262     -66727.654      34.073883      30.517569      30.679107    
    340000   4129.3298     -1401.792      -72027.758      5337.0439     -66690.714      173915.51      13.363838     -66842.878      33.915408      30.842862      30.095553    
    341000   4044.7958      4.23892       -71986.696      5227.786      -66758.91       173826.83      13.370656     -66758.45       35.294771      30.768857      30.638329    
    342000   4096.5132     -5355.1648     -71893.656      5294.6294     -66599.027      174444.67      13.3233       -67182.096      33.857975      30.639087      30.68766     
    343000   4112.4241     -1245.5963     -72001.489      5315.1937     -66686.296      173927.72      13.3629       -66821.514      35.319361      30.631229      30.823082    
    344000   4153.6154      4677.5954     -71926.754      5368.4324     -66558.322      173656.28      13.383787     -66051.328      34.005121      31.16631       29.655085    
    345000   4107.3611     -762.28991     -71984.641      5308.6499     -66675.991      173849.96      13.368877     -66758.706      34.901041      30.376946      30.855918    
    346000   4126.6537     -1335.0938     -72027.124      5333.5852     -66693.539      173833.63      13.370133     -66838.394      34.296515      30.681426      30.374795    
    347000   4079.0909      1773.5907     -72048.004      5272.1115     -66775.892      173606.62      13.387616     -66583.712      35.014159      30.592265      30.476011    
    348000   4125.9285      156.37999     -72015.533      5332.6479     -66682.885      173815.96      13.371492     -66665.92       35.205071      30.591363      30.859351    
    349000   4140.6843     -3234.0157     -71943.063      5351.7193     -66591.344      174145.21      13.346211     -66942.859      32.678169      30.177593      30.641319    
    350000   4117.2275      198.648       -72046.786      5321.402      -66725.384      173689.85      13.3812       -66703.849      35.715052      30.923317      30.608503    
    351000   4116.8773      5153.2486     -71931.59       5320.9495     -66610.641      173566.71      13.390694     -66052.38       33.324662      30.570922      29.99447     
    352000   4071.1635      791.40143     -71979.058      5261.8656     -66717.192      173804.83      13.372349     -66631.341      35.005726      30.500648      30.85229     
    353000   4060.4872      117.87816     -72115.815      5248.0668     -66867.748      173672.6       13.38253      -66854.97       34.737989      30.768158      30.309518    
    354000   4091.2384     -2128.4767     -71987.735      5287.8118     -66699.924      173993.08      13.35788      -66931.072      34.063952      30.851284      30.274918    
    355000   4097.76        1023.5609     -72000.209      5296.2409     -66703.968      173751.17      13.376478     -66592.966      33.500639      30.194735      30.821094    
    356000   4070.2235      2096.4423     -72070.971      5260.6507     -66810.32       173448.01      13.399859     -66583.364      36.175192      30.93302       30.438189    
    357000   4114.983      -559.09983     -72079.936      5318.5011     -66761.434      173715.86      13.379197     -66822.055      34.900051      30.5221        30.706498    
    358000   4057.489       1816.3481     -71961.011      5244.1917     -66716.819      173679.54      13.381995     -66519.923      34.680423      30.7774        30.261719    
    359000   4098.6748      1715.0947     -71978.815      5297.4232     -66681.392      173682.34      13.381779     -66495.469      35.091671      30.737657      30.654597    
    360000   4108.0914     -1240.4193     -72088.434      5309.5939     -66778.84       173859.24      13.368163     -66913.443      33.432655      30.146584      30.804631    
    361000   4136.5687     -14.378022     -72082.126      5346.4        -66735.726      173694.84      13.380816     -66737.285      34.972036      30.949585      30.368629    
    362000   4088.3561      2924.4932     -72145.771      5284.0866     -66861.685      173343.94      13.407903     -66545.276      34.929015      30.278273      30.657322    
    363000   4062.4238     -1473.8634     -72026.713      5250.5698     -66776.143      173847.9       13.369036     -66936.068      34.035893      30.597695      30.46486     
    364000   4100.8137      355.7257      -72048.604      5300.1876     -66748.417      173712.48      13.379457     -66709.848      33.953345      30.487086      30.359753    
    365000   4141.5579      1416.3662     -71978.322      5352.8484     -66625.474      173726.1       13.378409     -66471.896      35.747617      30.577649      30.815456    
    366000   4100.3138      1403.5384     -72045.989      5299.5416     -66746.448      173664.57      13.383149     -66594.314      34.565207      30.412218      30.761051    
    367000   4136.3973      109.6471      -72049.734      5346.1785     -66703.555      173678.58      13.382069     -66691.669      34.872796      30.772761      30.492173    
    368000   4074.6255      236.94405     -71912.992      5266.3402     -66646.652      173873.77      13.367047     -66620.938      35.626894      30.597292      31.008952    
    369000   4124.5587     -5277.451      -71982.679      5330.8774     -66651.801      174239.45      13.338992     -67225.733      33.59343       30.795887      30.340037    
    370000   4071.8703      544.47875     -72036.1        5262.7791     -66773.321      173675.18      13.382331     -66714.3        34.421572      30.738246      30.243311    
    371000   4114.997       2579.6909     -72087.503      5318.5192     -66768.984      173477.77      13.397559     -66489.664      35.915286      30.848645      30.547053    
    372000   4135.6279     -1039.3029     -72049.942      5345.1841     -66704.757      173877.22      13.366781     -66817.548      35.314343      30.536014      31.027089    
    373000   4112.2558      2927.9358     -71924.614      5314.9762     -66609.638      173764.53      13.37545      -66292.088      34.6109        31.119352      29.982488    
    374000   4085.5389      324.84161     -72037.642      5280.4454     -66757.197      173718.15      13.379021     -66721.975      34.752591      30.379222      30.824949    
    375000   4044.6149     -402.2076      -71969.383      5227.5522     -66741.831      173998.9       13.357434     -66785.511      33.277278      30.175989      30.841921    
    376000   4130.696       3409.0829     -71871.755      5338.8097     -66532.945      173697.72      13.380595     -66163.354      35.846863      30.887252      30.616141    
    377000   4109.1771     -4401.1542     -71985.348      5310.9972     -66674.351      174101.28      13.349579     -67152.605      34.338181      30.483748      30.799299    
    378000   4078.5387      1552.63       -72044.21       5271.3979     -66772.812      173661.02      13.383422     -66604.521      35.027159      30.687408      30.551949    
    379000   4056.3697      4244.1675     -71933.123      5242.745      -66690.378      173503.86      13.395545     -66230.766      35.361858      30.461457      30.764969    
    380000   4066.7573      1009.3285     -72104.645      5256.1707     -66848.474      173582.35      13.389488     -66739.122      35.383597      30.573288      30.718672    
    381000   4119.6038     -2822.7821     -71973.097      5324.4733     -66648.623      174147.32      13.346049     -66955.444      33.59735       30.857148      30.226001    
    382000   4051.4126     -5472.4232     -71955.515      5236.3382     -66719.176      174315.04      13.333208     -67314.57       35.219284      30.48791       31.400045    
    383000   4131.1355      3586.6708     -72031.501      5339.3778     -66692.123      173559.22      13.391272     -66303.59       35.12155       30.654053      30.5918      
    384000   4144.1019      707.64603     -72108.495      5356.1364     -66752.359      173721.95      13.378728     -66675.63       34.96569       30.537338      30.716604    
    385000   4050.4241     -807.2061      -72018.665      5235.0606     -66783.605      173768.87      13.375116     -66871.153      35.185691      30.493447      30.967336    
    386000   4075.1095      6175.7253     -72016.383      5266.9657     -66749.417      173341.45      13.408095     -66081.258      35.545512      31.012014      30.208401    
    387000   4103.5379     -1025.9089     -71959.553      5303.7086     -66655.844      173886.38      13.366077     -66767.187      34.594492      30.603932      30.710303    
    388000   4073.233      -2234.2512     -72089.245      5264.5404     -66824.704      173784.94      13.373879     -67067.049      34.898903      30.218108      31.119767    
    389000   4119.0864      5133.5913     -72139.365      5323.8046     -66815.56       173244.86      13.415571     -66260.46       33.442506      30.587909      29.916651    
    390000   4118.8459      2888.7057     -72033.312      5323.4938     -66709.818      173623.42      13.386321     -66396.777      35.05677       30.492783      30.858268    
    391000   4086.79       -70.913055     -72055.379      5282.0625     -66773.316      173757.73      13.375974     -66781.007      33.615686      30.32926       30.590246    
    392000   4102.8397      5273.9341     -72093.927      5302.8063     -66791.12       173264.88      13.414021     -66220.779      35.009994      30.680559      30.276318    
    393000   4183.1697     -9.5380014     -72056.059      5406.6305     -66649.428      173760.41      13.375767     -66650.463      35.05469       30.278245      31.082522    
    394000   4128.5221      476.73546     -72082.708      5336          -66746.708      173570.34      13.390414     -66695.061      33.187181      30.445075      30.17988     
    395000   4069.267       1860.8226     -72024.548      5259.4145     -66765.133      173578.82      13.38976      -66563.533      36.365125      30.935165      30.709848    
    396000   4104.3718     -1427.2323     -72125.838      5304.7864     -66821.051      173801.99      13.372567     -66975.876      34.053879      30.689007      30.361587    
    397000   4082.5672      209.98938     -72052.277      5276.6046     -66775.672      173731.73      13.377975     -66752.902      35.07204       30.948712      30.353554    
    398000   4096.5631     -1291.4215     -72025.31       5294.6939     -66730.616      173886.8       13.366045     -66870.776      33.943625      30.907252      30.111981    
    399000   4054.652       3291.6133     -71993.505      5240.525      -66752.98       173497.18      13.396061     -66396.537      34.420768      30.291308      30.63775     
    400000   4081.8774      1836.7251     -72007.126      5275.713      -66731.413      173663.76      13.383211     -66532.325      34.541393      30.398392      30.805932    
    401000   4109.4629     -3103.5037     -71947.587      5311.3666     -66636.221      174131.32      13.347276     -66973.523      32.95907       30.603482      30.312715    
    402000   4070.9744      2093.2767     -72113.582      5261.6212     -66851.961      173527.28      13.393737     -66625.244      34.924548      30.158823      31.142819    
    403000   4122.9925     -941.28229     -72022.917      5328.8532     -66694.063      173855.11      13.368481     -66796.204      35.363357      30.938715      30.541563    
    404000   4087.0858     -1625.0521     -72045.02       5282.4448     -66762.575      173791.62      13.373365     -66938.848      34.755304      30.769588      30.493995    
    405000   4097.805      -1346.4189     -71975.491      5296.299      -66679.192      173954.94      13.360809     -66825.378      32.87818       29.94058       30.928221    
    406000   4121.9455     -80.791607     -71964.932      5327.5        -66637.432      173902.52      13.364836     -66646.202      35.757354      30.845265      30.811207    
    407000   4122.1194     -4114.6908     -71996.114      5327.7247     -66668.389      174227.5       13.339907     -67115.838      34.074728      30.693359      30.805762    
    408000   4090.4218      3616.9774     -71887.099      5286.7564     -66600.343      173831.15      13.370324     -66207.912      34.748743      31.133185      30.136615    
    409000   4136.187       227.15229     -72044.286      5345.9067     -66698.379      173703.22      13.38017      -66673.752      33.822552      30.422101      30.541857    
    410000   4075.5736     -5073.351      -72042.047      5267.5655     -66774.482      174065.94      13.352289     -67325.668      35.294429      30.703737      30.978654    
    411000   4030.6664      5500.0908     -72140.728      5209.5242     -66931.203      173163.53      13.421872     -66336.753      34.846556      30.607848      30.21432     
    412000   4116.6988     -275.20589     -72004.029      5320.7187     -66683.31       173725.36      13.378465     -66713.151      34.009126      30.454159      30.549932    
    413000   4072.2283      836.96276     -72001.59       5263.2418     -66738.348      173780.45      13.374224     -66647.567      34.949964      30.678914      30.580112    
    414000   4078.626      -7332.9391     -72113.058      5271.5106     -66841.547      174239.44      13.338994     -67639.017      33.619148      30.552227      30.745028    
    415000   4107.6889      773.06413     -71971.99       5309.0737     -66662.916      173847.59      13.369059     -66579.033      35.37356       30.643303      30.92794     
    416000   4128.1329     -948.9548      -72019.832      5335.497      -66684.335      173812         13.371797     -66787.282      33.655588      30.638181      30.264317    
    417000   4071.1908     -2969.535      -72093.192      5261.9009     -66831.291      173808.44      13.37207      -67153.434      34.665357      30.345351      31.014147    
    418000   4109.5435     -2768.7307     -71973.572      5311.4707     -66662.102      174079.2       13.351272     -66962.929      34.699846      30.983168      30.42045     
    419000   4100.8159     -179.34253     -72080.337      5300.1905     -66780.147      173773.85      13.374733     -66799.598      35.291542      30.479388      31.029781    
    420000   4176.5766      4760.6616     -72049.087      5398.1091     -66650.978      173327.7       13.409159     -66135.957      35.09321       30.797921      30.275742    
    421000   4093.3979     -1744.7825     -72011.232      5290.6029     -66720.629      173889.79      13.365815     -66909.996      34.696541      30.635044      30.79885     
    422000   4075.0179     -1143.4103     -72080.258      5266.8473     -66813.411      173746.89      13.376808     -66937.407      34.244561      30.574131      30.4294      
[...]
    899000   4138.3178     -3.7126824     -72070.807      5348.6607     -66722.147      173747.64      13.37675      -66722.549      35.614684      31.084194      30.899944    
    900000   4101.067      -4799.9022     -71915.512      5300.5151     -66614.997      174328.5       13.332179     -67137.261      35.003272      31.20064       31.142497    
    901000   4047.6265      1622.5826     -71973.232      5231.4447     -66741.787      173712.26      13.379475     -66565.862      33.609098      31.035752      30.299171    
    902000   4081.7082     -801.62887     -72089.947      5275.4944     -66814.453      173770.52      13.374989     -66901.397      36.189953      31.024206      31.313444    
    903000   4062.652       3734.3829     -71989.336      5250.8647     -66738.471      173562.36      13.39103      -66333.929      34.112677      30.776012      30.738874    
    904000   4053.7894      6360.9114     -72175.016      5239.4101     -66935.606      173081.37      13.428243     -66248.444      36.570448      30.964249      30.922675    
    905000   4084.4304     -878.80472     -72020.876      5279.0127     -66741.863      173870.28      13.367315     -66837.232      35.312159      30.98551       31.176567    
    906000   4098.6752     -2111.5995     -71941.994      5297.4237     -66644.571      174105.04      13.349291     -66874.034      33.959717      31.152281      30.698666    
    907000   4103.587       5887.8035     -71987.185      5303.7721     -66683.413      173455.1       13.399311     -66045.987      35.784857      30.724444      31.337429    
    908000   4153.37        769.9114      -71956.148      5368.1152     -66588.033      173873.64      13.367057     -66504.48       34.999778      31.22302       30.770766    
    909000   4104.6172     -3263.748      -72016.345      5305.1036     -66711.242      173977         13.359115     -67065.645      34.50787       30.925261      31.013799    
    910000   4095.0853     -3504.8162     -72039.669      5292.7839     -66746.885      174022.16      13.355649     -67127.565      34.839586      31.116319      30.995243    
    911000   4134.3732      7304.6594     -72004.705      5343.5624     -66661.143      173277.41      13.413051     -65871.135      36.261298      30.924314      31.059092    
    912000   4134.504       1969.9958     -71985.854      5343.7315     -66642.122      173734.05      13.377796     -66428.503      35.489279      31.195114      30.964914    
    913000   4101.5468     -1903.8817     -72102.48       5301.1352     -66801.344      173740.85      13.377273     -67007.802      35.47506       30.622872      31.525855    
    914000   4120.6015      1046.5127     -72140.486      5325.7629     -66814.723      173519.78      13.394316     -66701.383      35.759967      31.082856      30.998207    
    915000   4149.8178     -2499.4898     -72059.103      5363.5241     -66695.579      173918.52      13.363607     -66966.902      35.491172      30.711915      31.586631    
    916000   4053.4666     -286.50537     -71919.268      5238.9929     -66680.275      173917.48      13.363687     -66711.375      33.962986      31.011384      30.67553     
    917000   4117.7227     -328.06626     -72043.241      5322.0421     -66721.199      173733.64      13.377828     -66756.773      35.688251      30.931801      31.325042    
    918000   4060.7001      5546.2259     -72063.046      5248.342      -66814.704      173356.57      13.406926     -66214.599      35.901623      30.874855      31.07765     
    919000   4096.3405     -1316.2803     -72018.792      5294.4062     -66724.386      173990.1       13.358109     -66867.329      34.591006      31.02576       31.019772    
    920000   4029.9042     -2144.782      -72059.459      5208.5391     -66850.92       173769.64      13.375056     -67083.54       36.337377      31.032906      31.293405    
    921000   4140.6262      3084.4661     -72018.32       5351.6443     -66666.676      173597.05      13.388354     -66332.472      34.128815      30.898904      30.720406    
    922000   4154.1414      900.49992     -72000.834      5369.1122     -66631.722      173728.32      13.378237     -66534.078      34.619114      30.908414      30.902369    
    923000   4058.0161     -7546.1151     -72000.052      5244.873      -66755.179      174360.82      13.329708     -67576.404      35.478282      31.362749      31.178065    
    924000   4020.6019      1010.5226     -71909.267      5196.5161     -66712.751      173885.11      13.366175     -66603.079      34.29149       30.751892      31.045534    
    925000   4129.3377     -689.17767     -72031.399      5337.0542     -66694.345      173851.73      13.368741     -66769.127      36.100885      31.070809      31.403828    
    926000   4045.9146     -1782.009      -72075.289      5229.2322     -66846.057      173811.48      13.371837     -67039.377      34.231445      31.153727      30.63671     
    927000   4067.3451      1247.8164     -71955.354      5256.9304     -66698.424      173873.33      13.36708      -66563.007      35.200891      30.57048       31.502363    
    928000   4126.8467      2469.5143     -72010.838      5333.8346     -66677.003      173721.71      13.378747     -66409.237      35.90442       31.443739      30.791234    
    929000   4136.7358     -430.16764     -72145.773      5346.6159     -66799.157      173696.57      13.380683     -66845.793      34.668952      31.024931      30.863036    
    930000   4127.7613      1062.3541     -72024.936      5335.0167     -66689.919      173703.2       13.380173     -66574.742      36.518995      30.838181      31.573273    
    931000   4084.3604      246.64374     -72069.515      5278.9222     -66790.593      173641.12      13.384956     -66763.862      35.128593      31.244833      30.751317    
    932000   4105.6946     -797.17805     -72068.704      5306.4961     -66762.208      173728.72      13.378207     -66848.648      34.471417      30.966671      30.834931    
    933000   4130.7017     -606.79163     -72013.727      5338.8171     -66674.91       173895.84      13.36535      -66740.77       35.334469      31.051161      31.147745    
    934000   4079.725      -1481.5996     -71965.99       5272.9311     -66693.059      173976.2       13.359177     -66853.942      35.298859      31.203138      31.04913     
    935000   4045.967       1549.6593     -72000.908      5229.2999     -66771.608      173691.01      13.381111     -66603.611      34.421679      30.729907      31.075746    
    936000   4106.1569      966.07379     -72045.39       5307.0937     -66738.297      173724.09      13.378563     -66633.545      35.710326      31.216995      30.940512    
    937000   4060.1669     -1175.5974     -71948.651      5247.6528     -66700.998      173914.04      13.363951     -66828.607      34.288075      30.809783      31.123055    
    938000   4132.4846     -7103.7518     -71927.37       5341.1214     -66586.248      174580.24      13.312954     -67360.305      35.022794      31.543286      31.000709    
    939000   4152.2939      2626.6443     -72062.351      5366.7244     -66695.626      173606.48      13.387627     -66411.012      34.017013      30.542094      31.123368    
    940000   4103.7607      3593.0611     -72032.798      5303.9965     -66728.802      173460.54      13.39889      -66339.797      34.453076      30.928744      30.858173    
    941000   4088.0632      1041.9406     -72139.251      5283.708      -66855.543      173474.79      13.397789     -66742.727      36.262913      30.727172      31.596662    
    942000   4080.5882     -860.93831     -72012.546      5274.0468     -66738.499      173898.06      13.365179     -66831.944      34.032386      31.244207      30.559799    
    943000   4076.5876     -4865.8457     -72027.58       5268.8761     -66758.704      174134.4       13.34704      -67287.554      34.809913      31.090456      31.251664    
    944000   4090.7882     -231.88014     -72074.426      5287.23       -66787.196      173745.3       13.37693      -66812.342      34.241012      30.804462      30.931272    
    945000   4061.5191     -1705.0673     -72057.378      5249.4005     -66807.977      173723.32      13.378623     -66992.857      36.047088      31.311649      31.00419     
    946000   4145.4355      289.70085     -71975.478      5357.8601     -66617.618      173931.18      13.362634     -66586.168      33.525886      30.451929      31.303009    
    947000   4101.4581      523.01389     -71970.574      5301.0205     -66669.553      173825.07      13.370792     -66612.81       36.609454      31.231028      31.310051    
    948000   4126.0433      350.2733      -72081.092      5332.7962     -66748.296      173703.74      13.380131     -66710.32       34.583138      31.034955      30.738757    
    949000   4070.267      -1572.7769     -71906.584      5260.7069     -66645.877      174167.07      13.344536     -66816.848      36.800389      31.17411       31.866639    
    950000   4144.1502      2310.8793     -72046.113      5356.1989     -66689.914      173464.21      13.398607     -66439.721      34.997056      30.963644      30.79154     
    951000   4038.3283      2683.0313     -72029.973      5219.427      -66810.546      173529.26      13.393584     -66519.951      36.063203      30.962332      31.313464    
    952000   4026.1877     -385.05912     -72064.252      5203.7356     -66860.517      173636.83      13.385287     -66902.248      33.792668      30.7846        30.782276    
    953000   4161.7247      291.54483     -72103.557      5378.9134     -66724.643      173708.21      13.379786     -66693.034      35.015471      31.196655      30.806249    
    954000   4134.8565      3014.1402     -71941.124      5344.187      -66596.937      173829.99      13.370413     -66269.914      36.665826      30.904503      31.814506    
    955000   4098.8666     -2985.8332     -72015.766      5297.6711     -66718.095      174052.76      13.3533       -67042.462      35.047319      31.367755      30.90364     
    956000   4084.1068     -2394.3702     -71977.05       5278.5944     -66698.456      174166.03      13.344616     -66958.738      34.214422      30.946763      31.124951    
    957000   4149.7625      2138.0922     -71936.918      5363.4526     -66573.466      173773.08      13.374792     -66341.567      36.268048      30.876075      31.568849    
    958000   4104.9672      278.07103     -72068.201      5305.5559     -66762.645      173669.78      13.382747     -66732.503      34.840925      31.317         30.580386    
    959000   4139.6633      861.87471     -72013.701      5350.3997     -66663.301      173626.76      13.386063     -66569.9        35.966441      30.678554      31.688727    
    960000   4029.8551     -658.17654     -72078.415      5208.4757     -66869.94       173664.06      13.383188     -66941.281      36.331632      31.252313      31.279355    
    961000   4152.3979     -397.25905     -72106.07       5366.8588     -66739.211      173816.99      13.371413     -66782.309      34.745784      30.843735      31.180619    
    962000   4082.9448      28.909098     -72096.098      5277.0926     -66819.005      173783.36      13.374        -66815.87       34.94272       31.10058       30.902342    
    963000   4100.1233      942.01683     -72078.461      5299.2953     -66779.165      173699.5       13.380457     -66677.037      36.097982      31.60786       30.746412    
    964000   4138.2794     -1785.0548     -71965.097      5348.6111     -66616.486      174008.14      13.356724     -66810.356      34.17615       30.85126       31.196778    
    965000   4142.6852     -2757.2574     -71979.124      5354.3054     -66624.818      174123.38      13.347885     -66924.475      35.760621      30.688678      31.900123    
    966000   4139.6165     -339.28296     -72043.003      5350.3392     -66692.664      173806.61      13.372211     -66729.47       35.192658      31.22066       31.007792    
    967000   4099.3538     -3294.1459     -72032.947      5298.3008     -66734.646      173943.64      13.361677     -67092.282      35.769155      30.97887       31.422624    
    968000   4128.1044      4123.47       -72104.76       5335.4601     -66769.3        173283.04      13.412615     -66323.327      35.202995      30.95059       30.785378    
    969000   4044.7528      611.09676     -72050.998      5227.7305     -66823.268      173738.86      13.377426     -66757.001      34.345185      31.281895      30.609315    
    970000   4108.7902     -2930.9735     -72079.637      5310.4971     -66769.14       173903.1       13.364792     -67087.273      33.787192      30.39983       31.356282    
    971000   4091.0196     -280.31445     -71940.395      5287.529      -66652.866      173880.79      13.366506     -66683.288      35.614954      31.457856      30.840334    
    972000   4142.6825      5987.4403     -72168.109      5354.3019     -66813.807      173163.92      13.421842     -66166.682      36.106308      30.609147      31.530015    
    973000   4099.6769     -1637.2144     -72015.779      5298.7184     -66717.06       173823.22      13.370934     -66894.685      34.442992      31.033628      30.869665    
    974000   4069.0407      1643.4599     -72023.618      5259.122      -66764.496      173726.01      13.378416     -66586.293      35.874478      31.095941      31.132893    
    975000   4101.5578      1095.9888     -72109.701      5301.1494     -66808.552      173554.58      13.39163      -66689.829      36.05392       31.077826      31.197316    
    976000   4038.2569      2866.5002     -72049.595      5219.3347     -66830.26       173547.99      13.392139     -66519.761      33.074949      30.804957      30.531521    
    977000   4097.7174      221.01793     -72019.13       5296.1857     -66722.944      173821.07      13.371099     -66698.966      35.82615       31.125438      31.253083    
    978000   4123.0516      649.16082     -72122.018      5328.9296     -66793.089      173665.3       13.383092     -66722.724      35.296875      30.899864      31.286893    
    979000   4104.7928     -1604.9269     -72033.443      5305.3305     -66728.113      173921.96      13.363342     -66902.333      33.745932      30.738493      31.082904    
    980000   4127.3816     -681.58667     -71961.921      5334.5259     -66627.395      173914.27      13.363933     -66701.381      36.197751      31.2431        31.265349    
    981000   4068.6227      1344.1675     -72068.387      5258.5817     -66809.806      173532.02      13.393371     -66664.219      34.485798      30.924901      30.82258     
    982000   4071.924      -4782.196      -72097.315      5262.8485     -66834.466      174021.37      13.355709     -67353.887      35.178922      30.890774      31.516448    
    983000   4054.1629     -2964.0477     -71942.375      5239.8928     -66702.482      174077.47      13.351405     -67024.528      34.864624      31.330627      30.970628    
    984000   4135.7909      2401.9467     -72120.022      5345.3947     -66774.627      173536.3       13.393041     -66514.465      35.635582      30.797708      31.324634    
    985000   4105.9545     -459.26472     -72113.969      5306.832      -66807.137      173703.25      13.380169     -66856.93       35.805485      31.099194      31.17794     
    986000   4152.2589     -5550.2668     -72079.771      5366.6792     -66713.092      174074.38      13.351642     -67316.121      33.567284      30.744697      31.147854    
    987000   4097.1383      2123.535      -72020.769      5295.4374     -66725.332      173661.3       13.383401     -66495.16       36.844648      31.415061      31.139764    
    988000   4093.7622      1477.7479     -72039.693      5291.0738     -66748.619      173608.73      13.387453     -66588.493      34.391246      30.901552      30.86137     
    989000   4032.7359     -689.70261     -72023.832      5212.199      -66811.633      173746.79      13.376815     -66886.427      35.167119      31.307147      30.778825    
    990000   4123.2219      167.50323     -72093.688      5329.1496     -66764.539      173749.18      13.376632     -66746.374      36.169326      31.062157      31.273213    
    991000   4084.2872      433.69492     -72086.351      5278.8276     -66807.523      173592.43      13.38871      -66760.534      36.059307      31.022486      31.336405    
    992000   4086.4479      1704.6831     -72004.879      5281.6203     -66723.259      173700.31      13.380395     -66538.445      35.470875      31.279865      30.871034    
    993000   4091.5512     -752.37003     -72002.457      5288.2161     -66714.241      173781.67      13.37413      -66795.847      33.722431      30.808675      30.858529    
    994000   4090.1631     -2246.0297     -72054.286      5286.4221     -66767.864      173902.59      13.364831     -67011.651      35.962573      30.918785      31.492087    
    995000   4084.4891     -1136.8518     -72157.128      5279.0886     -66878.039      173539.1       13.392825     -67001.177      34.778767      31.458912      30.395407    
    996000   4051.5403     -492.95739     -72058.627      5236.5032     -66822.124      173644.29      13.384712     -66875.551      34.991076      31.030622      30.864963    
    997000   4123.5565      785.6541      -72049.442      5329.5821     -66719.86       173709.18      13.379711     -66634.679      35.396579      31.069867      31.10853     
    998000   4105.9266     -698.72693     -72158.011      5306.796      -66851.215      173614.08      13.38704      -66926.93       34.590269      31.112806      30.6994      
    999000   4072.4517     -1093.9345     -72048.581      5263.5306     -66785.05       173749.4       13.376615     -66903.683      34.536318      30.503013      31.47866     
   1000000   4070.1322      2790.5208     -72007.491      5260.5327     -66746.958      173639.92      13.385048     -66444.528      36.801879      31.508279      31.174829    
   1001000   4085.8148     -4848.7105     -72052.635      5280.802      -66771.833      174080.31      13.351187     -67298.657      34.752564      30.889609      31.278237    
   1002000   4122.1912     -933.35429     -72029.957      5327.8175     -66702.14       173770.52      13.374989     -66803.37       35.419013      31.400897      30.879911    
   1002307   4032.8452     -4243.479      -72060.396      5212.3403     -66848.055      174010.04      13.356578     -67308.933      34.602651      31.130905      31.033395    
Loop time of 968.258 on 40 procs for 1000000 steps with 10000 atoms

Performance: 89.232 ns/day, 0.269 hours/ns, 1032.783 timesteps/s, 10.328 Matom-step/s
95.4% CPU use with 40 MPI tasks x 1 OpenMP threads

MPI task timing breakdown:
Section |  min time  |  avg time  |  max time  |%varavg| %total
---------------------------------------------------------------
Pair    | 671.61     | 681.53     | 690.84     |  18.4 | 70.39
Neigh   | 12.012     | 12.264     | 12.482     |   3.0 |  1.27
Comm    | 163.39     | 172.75     | 182.1      |  40.2 | 17.84
Output  | 0.16551    | 0.48431    | 1.3351     |  32.3 |  0.05
Modify  | 81.828     | 85.636     | 88.844     |  20.0 |  8.84
Other   |            | 15.59      |            |       |  1.61

Nlocal:            250 ave         262 max         238 min
Histogram: 2 2 3 5 6 10 3 5 2 2
Nghost:        1476.42 ave        1489 max        1463 min
Histogram: 5 3 0 4 5 3 9 6 3 2
Neighs:        11571.1 ave       12165 max       10549 min
Histogram: 1 0 3 2 4 8 4 9 3 6

Total # of neighbors = 462844
Ave neighs/atom = 46.2844
Neighbor list builds = 25397
Dangerous builds = 0
	unfix           feq

write_data	liq_or_sol.data nocoeff
System init for write_data ...






Total wall time: 0:16:12
