LAMMPS data file via write_data, version 2 Aug 2023, timestep = 4000000, units = metal

5000 atoms
2 atom types

-3.353864258228235 35.00386426956738 xlo xhi
0.06443942398502855 31.585560582870613 ylo yhi
-0.07337358016789608 79.19837358014547 zlo zhi

Atom Type Labels

1 W
2 Mo

Masses

1 183.85
2 95.94

Atoms # atomic

2443 1 0.08915809139491238 2.145921639685363 2.815784315752481 0 0 1
4598 1 -1.187720078469019 0.8399529385584542 0.9995316552398799 0 -2 1
1419 2 -0.8738923251686286 3.8776770286895164 1.13556608542131 2 2 0
1147 2 1.412072722524238 0.5495318100270989 0.5257766196742186 -1 -1 -1
2140 2 2.286437184157733 3.655352046051909 1.9610474986241129 0 2 0
4970 1 3.932621277392502 3.2038865737132873 0.07397897603630835 -1 1 1
4556 1 4.477936988696343 1.455288005230088 2.2189877344824955 -1 1 1
1455 1 7.809958935850492 2.833878980808025 3.6435385574752748 -1 -1 1
4626 1 6.929714842637116 3.4399315197665006 0.5280964044487008 -1 1 1
15 1 9.912696360978483 1.9283366914706501 0.5257252344233481 0 0 0
2684 2 12.731556386277227 1.876951109607724 1.8839206975900475 1 -5 1
556 2 14.86615943494554 0.43463440363862504 0.8401880024670556 1 -1 0
2260 2 14.694242314085002 1.3709188236173464 3.858709074830988 0 0 1
3702 1 -1.7857903039681637 4.1092564874333375 3.8445439269621664 2 0 1
986 2 0.1744045254539559 5.97918396702066 2.9027391940564757 1 5 0
74 2 2.6181890169133455 6.947763232034387 1.7480092233444555 2 -2 1
1826 2 4.783160250890832 5.227848935256672 1.8647504890535125 0 -1 0
3294 2 7.002257413500473 6.163417661871332 2.883969281352108 0 2 1
4923 1 5.858242798418468 7.903051777926775 1.1942460252370704 -1 0 1
889 1 9.320861600473986 4.983671602738291 2.122553467637724 -1 -2 0
3392 2 11.783072246545144 7.345060677373237 1.8135170273601386 1 -1 1
4589 1 14.570344207089018 4.043895387696937 2.6259871875854293 0 1 1
2418 2 12.240562681396161 4.910223589343594 0.8502126423622115 2 -1 0
2762 1 14.537954663283827 6.747975119452832 2.7014803121521056 -1 -2 1
3870 1 -2.015516879464771 11.253865795356429 2.075913979987641 -1 1 1
2660 1 0.014738326021718429 11.62890386256792 3.62812137974713 2 -2 1
2561 1 3.5640771860433764 9.257423532504683 0.5590115155375514 -1 0 2
1980 1 0.5552611610145508 8.433110169660035 2.5642005316740524 3 1 1
999 2 0.8469794997581559 10.908272317367237 1.6362051261826025 1 -1 0
2867 2 6.66149313475222 10.524919800736827 2.4803805113333457 0 -1 1
2427 2 8.573166884176514 8.63852176102061 1.544677407838277 -1 -1 0
4860 2 10.961396030809144 10.04845922149374 1.3886346218506602 0 -1 1
2089 1 13.577655789943162 8.965133528971997 0.9381137661034309 -1 -1 1
4938 1 12.04195254846491 8.997113925292668 3.464208336217959 1 0 1
3751 2 13.148155954559076 11.36113577806356 2.534535721112185 1 -1 0
3003 2 14.817569616712728 9.826293459537593 3.654353497620724 1 1 1
101 1 -3.246253780163134 14.114407969538712 0.5516984048871623 -1 1 -1
3155 2 -3.11402650381272 13.234964905921874 3.023568766993992 2 -2 1
1546 2 1.952106985294269 15.344306425727822 0.8714274287765628 0 0 1
3442 2 2.71829671048288 12.38030857452665 3.3311774099304667 0 0 0
1820 2 0.8001916081319411 13.549867897264106 1.358734885701173 1 1 1
252 1 3.037182899378652 12.465674519805448 0.9417794496811835 2 0 0
1183 2 3.5272356065279116 14.990898748951052 3.10706144728461 2 2 0
4562 1 7.276000665436229 12.096352263655927 0.1959739074017149 -1 3 1
3218 1 7.786136197631054 12.827834843335426 2.862460504572148 0 0 1
1944 1 5.260655440500017 13.009617039163174 2.3750628616786513 1 0 1
828 1 8.91439786410383 15.33392844771354 1.6069768534011346 0 2 -1
581 2 10.155081421755463 13.157051152872006 0.9752341122288779 1 -2 1
3959 2 10.868902326823433 12.840531665087612 3.611877102483964 -1 3 0
4769 2 12.648528283663673 13.479896510143389 1.05877895902014 -1 2 1
3105 1 15.077463477438332 14.08501541831843 1.7148491514543451 0 -2 0
4230 2 -1.23716618160261 0.44096669724157256 7.157104563014884 2 1 0
3179 1 -1.7468080005975795 2.8411221301324274 6.282560367794458 -1 1 -1
2183 2 -2.053609315921349 1.4473670038992879 4.168430903690179 1 2 0
1438 1 0.04390355696478476 1.1726292679729462 4.846308893754523 0 -1 0
1107 1 1.6653361095247856 0.4214363209343051 7.455496526597627 0 0 1
3768 2 2.9605972387077673 0.18384912231127643 4.082092791458818 0 2 1
4636 1 3.141911336963455 2.629535919192575 4.927092641042831 1 -1 1
1814 2 0.9368807206096497 2.7710706591888603 7.441051852938259 2 -2 2
4458 2 5.443512220323713 3.9880057791306425 4.45178922419118 1 0 1
1497 2 5.784980771975034 0.979358486090938 5.07007686766134 -1 -3 1
2372 2 7.57788562521082 0.14167962205464857 7.57672527808172 0 -2 0
4629 1 7.233534665333487 3.3971204260911114 6.464111307452889 2 0 1
2070 1 10.466825939882654 3.698373430365125 6.541904560830439 -1 -2 1
3934 1 9.015371476085148 1.2055314432722366 5.426995181370939 -1 2 1
936 2 10.449710725241024 2.7838341236692217 4.106026770457687 -2 -1 0
2863 1 14.5417235722372 2.178950171510031 6.688895809172429 -1 3 0
1048 1 12.124664628978474 0.7464758649933632 5.270465163994372 0 2 0
4590 1 13.151101663768113 3.246469991992005 4.987056169294671 0 1 1
1997 2 -3.2300807835840977 6.483364243218791 7.5544917638521545 0 -1 0
2279 2 -1.419421422548613 6.784557498530536 4.380386364079574 1 1 0
3670 1 -0.12194873986062493 6.079103645681241 7.075216097556403 0 3 0
3382 2 0.5693834118905401 4.642183185575429 5.628260591115768 0 0 1
4389 2 1.8442738303151476 7.510300157627815 4.584583606750106 -1 0 1
3320 2 4.2475472703516095 7.764805871506037 4.352659290823331 1 -1 0
1251 1 2.603275054059739 5.907188229276393 7.539462593809696 0 -1 0
683 2 2.8984196006947505 4.761159555708934 4.124354267320579 1 0 0
4503 1 6.789652720262325 5.851157291547832 6.742206128268457 0 -2 1
3917 2 4.7451173078716025 4.471737981621687 6.861269739385066 2 0 0
2138 2 11.787424516264648 5.7917434388211255 4.056144100922758 1 1 1
3437 2 8.924972648075897 4.937352822290622 5.068893896009095 -1 2 0
2177 1 9.463312524223497 7.144858368252889 4.06665557070431 -1 -3 0
2666 2 15.626721055536883 5.059530927140566 5.310452781789431 2 -2 0
2789 1 12.638714307913451 5.506935791570321 7.0245245371657985 1 0 0
4775 1 13.456670884733807 7.868303256264662 5.766693731728296 -1 2 1
4905 2 -0.8749553497461524 8.00188152518913 6.355829777158084 -2 0 2
2403 1 -1.7239767258194079 10.280936544577713 7.543941134188207 2 1 0
3958 1 -1.3725032379770485 9.333831865811437 4.28816746150185 -1 2 1
2692 2 0.2473708361203153 10.840133768599545 6.769744129845703 -1 -1 1
3717 1 1.8520620122053355 9.923971694373696 4.602720278986903 0 -1 1
4841 1 1.8288695255572653 8.576736810621787 7.463113001251972 -1 2 0
4872 1 4.217885016798726 8.599880907423339 6.884518744122473 1 0 1
3956 1 3.656009925172393 11.117487981281462 7.258751109690707 1 -1 0
4139 1 6.781151172102701 8.320445396958757 4.576291319820434 0 2 2
1633 2 4.695519224469088 10.625425064543329 4.497916413807404 0 -2 0
1421 2 6.565042348348264 10.394842105209966 6.926789804756916 0 1 0
2862 1 9.330095999261372 10.152652512618806 4.44875998609944 0 -3 -1
1691 2 11.077429742702463 8.23249820422792 6.607247183183242 0 1 0
3835 2 12.025938587877821 11.150784015996647 5.551745423266513 2 0 0
4851 2 0.42393088332767714 15.591517270416773 6.847105881706169 1 -2 1
4054 2 -0.4020015229749401 14.080288925815132 4.282170826236807 1 -1 1
4315 2 -1.3218103698812178 13.345775030518377 7.53879628423093 1 -2 2
4966 1 -2.2285812076760916 12.515675567097412 5.395181125406609 1 3 0
3592 1 4.079784307220333 13.323421424952544 5.587743520455165 -1 0 1
2381 2 1.5338308316351732 12.928659800846273 5.988986883029035 -1 0 0
2616 2 5.860747369438172 14.639923408728638 7.422973285667935 2 0 0
399 1 7.970606557016023 15.64012995325261 6.792695325367673 1 2 1
4832 2 6.551371413216792 14.96831771656536 4.053495118717708 -1 -3 2
2104 1 6.7723155077184884 12.50087087086987 5.210623229127479 2 0 0
4176 1 10.990442206139303 14.681559440534357 6.3627218855163825 0 -1 0
4437 2 8.76874698665727 14.40970096779019 4.569357147931417 1 0 1
4995 1 9.17639681213073 12.282133402062657 6.391622311195337 0 0 1
1675 1 12.325750330602915 12.967534067036773 7.238707191965121 -1 -1 0
3194 1 13.79953352463787 13.313559060938777 4.767103824792686 0 0 1
1572 2 15.400074426454815 13.00318101598036 7.681887813460446 1 0 0
594 2 14.073720682367956 14.538220919653215 6.689432632586155 -1 1 0
2369 1 -2.174397750223056 1.5647769819049884 9.792628012313363 0 0 0
1192 2 -0.4274624954021955 3.635549292345316 10.041561836791312 2 2 1
4011 1 -3.167753551437232 3.862913966775445 11.601109121226893 -1 -1 1
4162 1 -0.7804009854902705 0.07249504261909223 11.807758563714145 -1 1 1
741 1 3.829528988945312 2.436984885312364 7.96716718074917 -1 3 0
1180 1 1.3698906607626853 1.4152881062097493 9.87922918737069 0 1 0
2340 2 1.3247104065684399 3.1509731534518486 11.67062937804034 0 1 0
778 1 3.60137269039358 1.752023325509874 10.792356106139417 0 4 1
1396 2 5.863547089109495 1.2876252223399927 9.363448044996769 1 -1 0
3366 2 8.369064446853413 2.2910968871769524 10.820369901620394 -3 -1 1
2779 1 10.985175235879298 1.5207752844149702 10.369784041221827 2 2 0
4185 2 8.836731392779358 2.549481721746068 8.44743622235989 1 2 0
2182 2 10.218369008255962 1.1971673418340092 7.893063587905677 2 0 1
3005 2 12.489751490438893 3.516778089043481 11.394735057880775 0 -1 -1
3205 2 13.994038844074378 2.1321700167922866 8.942905477097897 1 3 1
1699 2 14.879693225167884 1.5142795898901424 11.770186183649948 0 0 0
4408 2 12.246475028242605 1.8279838190019038 7.9351209052133775 0 0 1
3721 1 -1.6579085077402163 6.0551671937454605 10.281554356203255 0 1 0
1532 2 -3.040208432779714 4.083224997278398 8.614599269355182 -1 1 0
4179 2 2.341935964996398 4.261072471665026 8.805783031817596 1 3 0
2101 2 4.244250481792162 4.172907874928548 10.807253569362752 1 0 0
1426 1 6.5798692232916505 4.278061292109157 9.365412537711158 -1 0 0
2636 1 6.932944222157955 7.735058784294529 8.293014328042172 2 1 1
4222 1 4.939501272677749 6.461983373654561 9.259741439968266 0 -1 0
4229 2 4.647340552407636 7.491255492409602 11.781067762403058 0 3 1
254 2 9.529226505624717 7.43990291343399 10.4622997749979 1 2 0
4560 1 9.161019658825614 4.450062111820484 10.649946582763345 0 0 1
2522 1 11.270828769656049 6.254413691905311 8.701716430723348 -1 -2 1
232 2 8.82517507139062 5.727180279546856 7.9957786353706926 1 -2 -1
3842 1 14.99268136759692 5.799900140443028 8.157490537843174 0 0 2
566 2 13.943058612420248 5.732599935501975 10.827075355982666 1 1 0
3650 2 -2.985068107642417 8.968768581429774 9.602655246928297 -1 -1 1
3875 2 -1.6177353428591625 11.052853708101841 10.109499842107892 -2 1 1
2050 1 -0.1038226063066423 8.564972390371093 9.141246532687735 1 1 0
4538 2 2.571618931971214 8.015618991771808 10.13361303075441 1 -1 1
3107 2 2.4041484865997242 10.706253665744295 9.454577592599561 1 1 0
445 2 4.076330187458319 10.079747191231647 11.560127614599125 -2 0 -1
4017 1 0.587836445555733 10.3675095876301 11.33489374447524 1 3 1
4482 2 5.379409065466932 9.382672158208113 9.535443278777365 0 -1 1
2032 1 8.008157132204245 10.166644891032924 9.46423434096542 0 -1 0
3693 1 6.775814943299427 8.206668012131228 10.802196131274215 1 2 1
1898 2 11.253186870760866 9.47888374307052 9.35049516016739 0 -3 0
3556 2 12.222700819043112 10.798965675377769 11.301567420942538 0 -1 0
2591 1 13.65822399238845 8.126850137098605 8.369332586102386 0 -1 1
4578 1 13.719859441874043 10.993269252558362 8.992417675758205 0 2 0
979 2 14.494253742459382 8.871313368807803 10.77612528053962 0 3 1
390 1 15.81176357924246 9.20017305183356 8.181713734868456 1 0 0
13 1 0.33630047726894396 12.602525674446946 9.275674697978651 1 0 1
4583 1 -1.7619288627149268 14.436516184538576 9.827718074357376 -1 0 1
3612 1 2.6383790450012548 13.072907125676135 11.268413293529399 0 -1 1
1584 1 0.9690920268834136 15.323212584263446 9.63505884255451 2 -2 1
503 1 2.607509020242815 13.880024098168432 7.938009874582432 -1 3 0
1757 2 5.2438198083003975 11.904656196515639 9.705830948668801 0 3 0
926 1 4.369351546193612 14.197595438124704 10.253039384226806 1 -2 0
4200 1 7.8668582484880165 12.870777846867279 8.491249658729133 1 0 1
2426 2 6.868090298611834 14.520556095528638 10.774643018595635 -1 0 1
1912 1 11.542946807877168 15.1052140443597 8.773969214688154 1 0 0
3302 1 9.231635799190359 12.048548767542767 10.732404057868626 1 0 0
2133 2 10.921670893348209 12.141825558141424 8.900704812103157 1 1 0
4876 1 13.454060722497438 13.629282630886255 9.696201076031457 2 -1 2
2259 1 -2.054570286434923 1.9792098917216816 14.068997163236231 2 -3 0
816 1 -0.7488438446762959 3.430310004545139 13.215310097555879 0 1 0
856 1 -3.3276780113620887 1.2467558464189137 12.494678776054975 3 -2 0
2136 2 4.019353866940071 2.7681925025181124 13.337851090989043 3 2 -1
176 2 1.9447416572353058 3.635387315649709 14.994040820185125 0 2 0
2949 2 1.9803018717581962 0.7425617478695659 13.973358340335963 1 2 1
1692 2 7.458127242459167 2.6181202487470587 14.304000378352955 3 1 1
1888 2 5.85426536232001 1.8325493769212897 12.086247676909927 2 -2 1
1811 1 5.5497518251009215 0.39336054576538015 14.50831140899817 1 1 0
1661 2 7.76011145334912 0.07937904831273457 12.895521390016446 -1 -1 1
4881 2 10.431270140756498 0.6916124381280709 14.601298257818105 -1 0 1
3970 1 8.396597768533871 0.4400199339726015 15.395741047027165 -1 -1 0
1775 1 11.83755772691953 3.63726777000798 14.972186548564682 2 2 0
2233 2 9.664813926968312 2.3520542746993955 12.859585090002746 1 1 0
3286 2 9.251411503311447 3.0444867305541408 15.706260365120398 3 -2 1
1146 2 12.520798715945661 2.048414269716267 13.05256555227632 1 1 0
2080 1 14.718428572337135 3.744658066482597 13.16770729418962 2 1 1
863 1 14.771726082446147 1.4903775616555859 14.885537247005303 0 0 -1
1230 2 -3.1256310933140585 4.275607252133136 14.297667756940408 0 1 0
2120 1 -0.6110552160336966 5.614790069414715 15.499677256640242 3 2 1
3658 2 -2.230946943132042 5.885099906242194 12.829772302390834 -1 0 1
2673 1 0.3312786491679196 5.775304629079884 12.52681399195368 -2 1 0
184 1 3.2413439548381744 5.336028194064556 13.06622587338416 -1 0 1
3730 1 1.6561653530851457 6.63535160432845 14.570580123937392 -2 1 1
862 2 5.9047974725753605 4.534607997360764 15.09403547148232 2 -2 0
635 2 6.680470209697866 4.1267711957640865 12.094086537549297 1 0 -1
1541 1 8.510983659746273 6.979708821002474 15.589651444751572 1 0 0
457 1 8.73007569227609 4.984463148996028 14.180782354301625 0 -2 0
1762 1 10.776892004747522 5.815308122765638 12.898546454120135 1 2 0
3109 2 11.306530060812182 6.129593859865286 15.448384929360797 1 -1 0
2957 2 15.754575455600264 5.707149933983955 15.052667826227763 1 -1 0
4532 2 -3.2640688975969496 9.00124925405181 14.819085026368937 0 -1 1
3760 1 -0.6445075836931595 8.007800952262546 14.068273141631646 2 -1 0
4875 2 -2.894156153344836 11.632956658027787 15.309801375851379 2 -3 1
913 1 -1.7209647555140486 8.171742474897126 11.820436798343094 1 -3 0
3740 2 -1.4596892585429218 10.78894124989572 13.695445908664649 1 3 0
239 1 -3.1854895987165777 10.258590192419982 12.344634520461883 1 2 -1
2584 1 3.6777659639683264 11.336455547976673 14.09455094200401 0 -1 0
4529 2 1.333691166964984 8.055130462815104 12.165103049519384 -1 3 1
2517 1 1.2703300516096592 9.47149700559207 14.16648755005724 2 0 0
3832 2 3.4922896164081303 8.047858005722151 14.353632110408922 1 0 0
933 2 7.745950963556831 9.522061342678857 15.648020388528145 1 -1 0
3078 1 6.092483125316598 8.890883379617105 14.155219298333886 1 2 0
645 1 7.004318071266834 10.945816209145086 12.504625336915323 1 -1 -1
1409 1 6.391268870621822 11.63546058063041 15.083864068911884 -1 2 0
790 1 11.029515269781287 9.063325174727884 15.422668169765478 2 -3 0
585 1 8.489991407094927 8.536668233121803 13.401364658050742 0 3 -2
3892 1 11.382883523552469 8.477062467707254 12.402050587446578 0 0 1
3296 1 9.604414348743457 10.202538558091392 11.921667346201293 0 1 1
1346 1 9.678101263356957 11.252554798778933 14.471306397743971 -1 2 0
4010 1 13.433147891397965 8.437847164953782 14.488689924353812 1 0 0
662 2 15.223810961586278 10.06267485273372 13.487266765214883 0 1 0
2294 1 12.74458440002109 11.116942884219414 14.148973702038617 -1 -3 -1
2897 1 15.723025779139768 8.44659197348912 15.471272314311427 2 2 0
3866 1 -0.9903656683916631 12.404417013848171 12.142384221221123 0 -1 1
438 2 -1.5249381258653303 13.973542974525271 14.580059792565695 2 0 0
423 1 -1.4521946082371227 15.72677473009093 12.237061545638348 2 1 0
3495 1 1.0129176186914854 12.255007730387625 14.338313722781116 0 0 0
956 1 0.8082211007470361 14.938032721254139 12.893753379612095 2 1 0
1211 1 3.628174414676079 14.312283529241256 14.428253654425308 2 2 -1
1842 2 5.926299270459953 15.682980468313216 12.695160448901756 1 1 -1
4001 2 6.272532325933149 14.417691304252457 15.02082892554316 -1 -1 1
3467 2 5.404140617883307 13.16561369618562 12.49461465252196 1 0 1
4896 1 9.57495391297197 14.212592852790017 15.712455039979131 -1 4 0
3210 1 10.975523648016184 13.139636157978776 13.381409298689743 0 0 0
2309 1 8.21738277947323 13.42922333876196 12.712325436559368 2 3 0
4213 2 8.304781883338364 15.74070208881196 13.67278334124569 0 -2 1
4791 1 15.1811603014946 14.778424053634074 12.02854396438289 0 -1 0
4376 1 12.13900945152267 14.91037029451976 11.942302625715538 -1 -2 0
3007 1 13.66885035333846 12.743158499717522 11.938592887950472 1 -3 0
50 1 15.634315013143283 15.296612447671448 15.323819990857812 -2 2 0
3859 2 15.198340568779724 12.321842160475688 14.434139330920065 -1 0 1
4527 1 13.34403123823111 14.336396425132335 14.130097113817648 1 -1 1
458 1 -0.6555905297834204 3.405007218978602 18.705347726079093 0 0 0
1590 1 -1.77040172789187 1.5176720186510742 16.657783543962502 1 1 0
1510 1 -0.1742836576338127 3.1413736900312705 15.998432053134994 1 -3 0
3946 2 -2.8102774397257546 3.7582795704190586 17.818592291005533 0 -3 1
3384 1 4.180614504266761 2.472845095675618 16.070986267146615 -1 1 1
769 1 2.393493925520497 2.9531618699718827 17.95596414072779 -1 1 0
4465 2 2.52691927771719 0.0702432865146001 16.418400851136482 0 -2 0
749 2 3.3240037967075464 0.6266281380485376 18.60898373448999 0 2 0
2 2 0.6949066795876622 1.0316350792520859 18.00260178101261 0 2 0
3547 2 6.590816038924137 1.853382497051389 16.72020953557497 1 2 0
2448 2 5.174399345843627 2.453550484591424 18.86378047450612 1 0 0
3858 1 7.582800178998314 3.2937269349745235 19.206172944147553 0 0 1
1309 1 8.91188817287424 1.1218427066441168 18.12894606250976 0 1 -1
4276 2 11.015535054924788 2.421658847525701 19.716818675391732 0 -2 1
2656 1 11.957478987776332 1.5730785824285314 16.936998273982873 0 1 0
939 2 14.105596523951863 2.3448273571391276 19.13785766261485 1 1 0
3839 1 13.983824857952762 3.5404773255538995 16.60220225665662 2 1 0
245 1 14.701797556929545 0.38346833918226564 16.720868941716745 -2 3 -1
455 2 -2.025925394128633 5.561066525688227 19.727432582333385 0 -2 0
2824 2 -0.6791094022863957 6.754414122903842 18.541916123305636 -1 1 0
1685 1 -2.955261403750402 6.436614799066955 16.307048758874434 1 3 0
2014 1 1.375816314981936 5.415317154037778 17.339748729953335 2 0 0
3246 1 2.473856737453578 7.590709980814154 19.11300645539136 1 -1 0
2875 2 3.8391595436719035 5.475927304371921 17.129082750492536 0 -3 1
1462 1 6.208177815785888 4.762369017471227 17.887334440991715 1 -2 1
464 1 4.330836649288833 5.609593851921474 19.63963798816951 1 -1 0
1579 1 7.416874950529497 6.8333493638599 19.163314607605155 1 0 0
3555 1 5.763003817747347 7.612217407014377 18.266891556902838 0 2 0
3152 2 11.738208531632388 4.194100490756073 17.806980466231902 0 3 1
4450 2 9.927280870778176 5.039826547076367 19.431186812065697 1 1 1
2257 2 8.513343898203013 5.058509316045341 17.11934138612614 0 2 1
416 1 12.116453767398845 7.0331194620292905 18.61874885449824 2 -3 1
3944 2 15.009575597919103 7.692693687033308 18.20930594804463 -1 0 1
1570 1 13.666383275392516 6.174211830610329 16.087227641324976 -1 2 0
4112 1 14.228272791648735 5.190748086805548 18.88899419471234 -1 2 1
1903 1 -1.516392174342835 9.268202263299486 16.65901968247636 1 1 1
4663 1 0.7766035998713177 10.984032353996632 16.744089930730937 -1 4 0
1797 2 4.104379397259074 8.217168698331038 16.844536812323266 1 2 -1
3576 2 1.076492171958618 8.224608752680092 16.98410985983347 1 2 0
2444 1 2.6945637354662715 10.34900291481218 17.97031505173918 1 1 0
2312 2 4.135774889506414 9.25006538844887 19.416051900915175 3 0 0
730 2 5.363021937156937 10.833512353685862 17.63726095630144 -1 0 -1
194 1 7.560456310093613 9.717664200526942 19.33486791334891 1 1 -1
4725 1 8.421047303472726 11.283366252577641 17.241645467420536 -2 0 1
1969 2 11.159507725317985 11.705208697336403 17.093613089953624 1 1 1
199 1 9.626528482297294 8.193272019084246 18.090307556302644 0 1 0
1321 2 15.735072470992073 11.860773414847976 18.172331409962105 -1 2 0
222 1 14.921698417348082 10.382463872319313 16.250046407255784 -1 0 0
375 2 12.899278745231168 9.238969747987168 17.433927302315187 0 2 -1
1933 2 -1.1412112463990716 12.004482264788704 18.807397504606016 1 2 0
613 2 -2.033127882369386 13.062566939379478 17.312479740436828 -2 1 0
4922 2 0.15119302836595994 14.803823169805998 19.495509915370352 -1 1 1
1176 1 -2.827064480716134 15.138829406327824 19.47336324742081 1 -2 0
4608 1 3.6145719262086233 12.635746450240768 16.331834612162396 1 -1 0
1849 2 3.060852376416568 15.750323065936929 18.180336549109757 1 1 0
1975 2 1.6805250494430002 13.001037827115175 18.19810903065149 3 1 0
4595 2 0.9668299477804521 14.928854909577694 16.267426821354725 -1 -1 1
4759 1 6.644565683067061 13.43684388907073 17.461893982099877 1 -2 0
68 2 4.876861961432203 13.55696563483122 18.569841954796555 1 0 0
2828 2 11.331011065050685 14.3577722187197 18.335523319489994 1 1 1
3455 2 9.360070760366835 13.66335152431787 18.72584001878018 1 -1 0
2881 1 13.280241066286589 11.919720108520313 19.077187090448742 -1 -1 0
449 1 13.648241155009458 13.071465428255536 16.533416680264786 0 2 -1
3666 1 14.72769160415508 14.56971595361467 18.44833888993812 0 -2 0
2611 1 -1.4544591211482736 2.7631078166042164 21.128482902262196 2 1 1
1126 1 -1.2164842779058214 0.30804949106894775 19.814698684757694 0 -2 0
804 1 -3.2260171266374185 1.4327416436363005 21.784513092299694 0 -1 0
2494 2 1.1405206877719376 1.118441946693307 20.983083178812148 0 -1 1
2033 2 1.6927254507563338 0.21172492044915234 23.573225735875393 0 0 0
1992 2 3.400013516793835 3.3217153679521267 21.106385963463232 1 -2 1
1119 1 0.9663669412824119 3.2485089843643262 22.043240743509934 1 2 0
813 2 7.708988527061003 0.8460980982261413 22.868720802239224 1 -1 -1
4183 2 5.399983252520737 0.7800375407364679 22.73272675978715 0 0 0
2512 2 10.460253154612476 1.7959760279293633 23.59680429169486 -1 -1 0
3641 2 8.820635894068019 2.7279497213045603 21.17568464373134 1 2 0
4502 1 15.301512426011069 3.5395022666383067 20.980441185179064 0 0 1
277 2 13.981724568046914 3.8270647333918464 22.946612654512926 1 2 0
2929 2 13.614355938352016 1.3003686925441307 21.95892611891038 0 -1 1
2547 2 -0.8666241896321725 5.243813295196719 22.08078662176745 0 1 0
3558 2 1.2061394367542695 4.902062684381597 19.788303613479357 1 0 0
3597 1 0.5957414536329044 7.107617597507062 20.90238339511722 1 0 1
660 1 2.831008734301644 5.442430170751949 22.47384783326968 1 1 0
665 1 5.310308934889781 6.648812896140618 21.42259860628097 0 0 0
1359 2 6.3016875199941325 4.609530636126585 21.34036932640878 1 0 0
4965 1 10.613730608223804 4.485343643297722 22.726414861761018 1 4 1
2103 2 10.946141084505964 7.179627458803526 20.967944138202945 2 -2 1
4351 1 11.962078050736148 7.732169618927035 22.996860362840707 -2 2 0
1547 1 8.51696131918383 5.993721039454677 21.6150193640135 0 0 -1
3181 1 9.724916218656865 6.96045427591439 23.552088640408375 2 0 0
2680 1 12.737586688661043 4.442789975398093 20.714121926521496 0 1 1
1345 1 13.75193733312258 7.355139747652566 20.806742791186203 0 0 -1
2760 2 -1.1771936840177442 9.163676136884467 19.892895408060497 2 0 0
4993 1 -3.2222036043722744 10.574003872128415 21.891980719934637 2 -1 0
680 1 -1.060108625002647 8.162929747663602 23.540329885836734 0 2 -1
592 2 2.8083665998400766 8.522534262500313 20.998938767462086 1 -2 0
3657 2 0.9169282573314863 10.017166992914559 19.951359188756605 0 -1 1
2552 1 2.4629073759784736 11.284768731707214 21.095882330094394 0 -2 0
1181 1 4.428633975020172 10.92600384488262 23.25990626738385 0 -3 0
3035 2 5.60991938529807 11.563421456138299 20.422235993459516 -2 1 1
1482 2 5.872263491161158 9.191393195895607 21.69440048577539 0 1 1
1191 2 6.9435624193004255 8.335814438204048 23.429779661638644 1 1 0
2236 1 10.524939980936388 10.109302766571375 19.86357882312568 -1 -3 1
4394 2 8.461746709414706 11.675754329294382 21.19397274220637 1 1 1
1557 1 10.551779120382546 10.473072484414857 22.7642886604989 1 1 0
1244 2 8.613136915533955 8.702128956112333 21.5601014446804 -1 -1 0
4732 1 14.862776318407239 9.664778882897881 19.92907849597871 -1 1 1
125 2 15.050803091645715 10.362785820041283 22.70344320691801 2 6 -1
224 1 13.1371969329002 10.322219292638728 21.35777156810769 0 2 -1
104 2 -1.4541755154905533 12.606106480646732 23.421042635929858 0 0 -1
1790 2 -2.2819256717646503 13.443492217558545 20.98077466383574 0 -1 0
776 1 0.8844103272538844 12.126976329338197 23.505495512813575 1 0 0
3331 2 1.4166472802514072 13.494171728010686 21.33687665282301 0 -3 0
753 1 6.844882265423298 14.680048408021902 22.918260393629232 0 3 0
1609 1 6.687182728448153 14.152839296973612 20.085190174967195 1 1 0
2571 2 8.888599904106705 14.721932475811496 22.18662999817117 2 0 -1
2612 2 11.078741720789578 13.22179596154863 20.957246623485734 0 -1 0
2940 2 13.000603638524186 15.404058814792032 20.57001993786406 0 1 1
2816 1 15.54404924046112 13.335621455841894 23.518807732708286 1 1 1
4056 1 15.263607853702137 12.769623401967323 20.96975559607157 2 2 1
434 2 14.211880297411842 15.329721829483326 23.44434779973585 0 1 0
2462 1 13.081326913112505 12.587191367830803 23.008526991961787 0 2 0
2805 2 -1.3083909950535668 0.5585270652827419 23.839758488095935 -1 -1 -1
4895 1 0.3309973530040127 2.360718678857841 24.584414501653274 2 1 0
3466 1 -0.6450931403135876 0.5973972593476133 26.55611105478544 1 1 0
4059 1 -1.9395298369095126 3.574798389592144 24.06249499329547 2 2 1
3778 2 -2.6838853189520417 2.313053719434983 26.813533369133268 -1 -1 0
112 1 2.97353668870607 3.0062351259900506 24.051521719745644 2 1 -1
4776 2 2.058470921203324 1.7451075513953087 27.306927298939602 0 2 1
4797 1 3.999879269965004 1.0800217394164726 25.5104403557826 1 2 0
3224 2 4.703531393932877 3.0483136421919026 26.62700283454336 2 -2 0
395 2 6.176758769131892 2.975762621438772 24.003991695438472 1 0 -1
2580 1 7.707447337879941 2.2501282097729143 27.391968411028785 0 1 1
2577 1 6.4676150788639095 0.43377588298959474 25.524557880540453 -1 1 1
258 1 8.802733647822983 2.4057123898279453 25.23460120912951 -1 0 0
2925 2 12.085472983796121 1.6062914319356976 26.531083365417498 -2 2 0
75 1 14.530629368437491 1.3509897409073375 24.668345866711466 2 0 -1
3886 1 13.99448863419391 3.3872462104593284 26.42694241692736 -1 1 0
4153 2 -1.9191292193513423 4.9648935511081325 27.09330741123492 1 1 1
2003 1 0.2652883742419605 5.434077068356314 24.3847446962849 1 -1 1
2915 1 -3.0035500672210844 5.808802799044684 24.603108850106103 0 0 0
2387 1 -0.4219840983476173 7.747421464583416 26.188556643258472 0 2 1
3602 1 2.891184014714292 5.779061653588363 26.19797925960402 1 -3 1
1883 1 0.7836438887767008 5.799583565080446 27.643156301403955 0 -2 0
1496 2 4.86149115096015 6.149242771537069 27.46752014063864 1 0 -1
4492 1 6.438497268437638 4.508695043519013 26.410889351762584 2 0 1
1910 2 6.6929906899113245 7.642920303720986 26.166804267578858 0 -1 0
2274 1 4.9995577244294935 5.982612716950212 24.083821433215054 -1 -1 0
937 2 7.806671043401863 5.061834589484156 24.11703301703149 1 1 0
4491 2 9.513354810075086 4.020155093940199 27.44315418159808 0 -1 1
786 2 10.66858948565629 4.433008420649105 25.216993643057172 1 -1 0
1619 2 9.617545780299093 6.514128379816743 26.754773648135238 0 0 1
4659 1 11.504328096416321 7.7205115783881935 25.96765218204935 1 2 1
4037 1 15.814797555046582 5.010435400195993 25.086205778358142 1 -4 0
3162 1 13.238034755115724 6.002418475821212 24.8364988349934 -1 3 0
2315 1 14.50514626317798 6.510751111434201 27.08382597493497 3 2 0
1761 1 15.031013989553696 7.818548587460843 24.184545412734458 0 0 0
3456 1 0.10521254386328849 10.615658630384006 25.39744256508587 0 2 0
2170 1 -2.8173944866467298 8.667975888176445 26.085573412144196 1 0 0
1130 1 -2.4956758657319122 10.458082252694354 25.234097140590883 0 0 1
4226 1 3.175998437239093 11.00136434075677 25.475509704708312 1 0 0
2303 1 4.208897009313068 8.378356668335751 24.07721905467366 0 -2 0
524 2 1.7058706573746711 8.083813843328144 23.871175321576093 0 1 0
2711 2 2.4922889770055425 8.910910058468133 26.4861808257303 0 2 -1
4640 1 5.044032876538768 8.880249595486706 27.6349539491698 0 -2 0
2005 2 6.326670952131883 10.517790826475583 25.925157799891366 0 -3 0
2664 2 11.512959602397192 10.314047569986172 26.88245283783721 -1 -1 0
3059 2 8.641116983630535 11.642468309171313 26.445324338415972 0 -3 0
327 2 8.894832481172907 9.257421445075817 25.489286167682636 0 1 -1
2013 1 8.376706983296266 10.889098091802037 24.04436439459847 2 0 0
2487 2 14.396613147771614 8.750239269249256 27.060014410601884 0 -1 0
4847 1 12.702802909467284 9.978747817467807 24.149395255056437 0 2 1
2746 2 14.124332102177735 11.597736382862637 26.114258871029907 0 1 0
1520 1 -2.251516865614054 14.806626548200946 24.81116622821971 1 0 0
567 2 -0.8040533906464749 12.722796903485957 26.702583876089736 -1 0 -1
759 1 -0.47693575305401303 15.61356983152355 26.919438467683175 1 0 1
1802 2 0.18075858498553776 14.665229855060561 24.211343384479846 0 -2 0
3089 1 1.4931538970100293 13.988754167566329 26.355913378049348 2 -1 0
1229 2 3.1639413373707157 13.764239624796009 24.00248961341661 0 -2 0
185 1 4.421743321533427 13.484945215108267 26.60223476360326 0 0 0
4835 1 7.149661807224684 14.172311608599019 26.612187284407714 0 0 0