

# Styles
	units        metal
	atom_style   atomic
	pair_style   eam/fs

# Neighbour list
	neighbor        2.0 bin
	neigh_modify    check yes


# Boundary conditions
	boundary p p p


# ----------------- Atom Definition Section -----------------

read_data "W-Mo_2000K.data"
Reading data file ...
  orthogonal box = (-0.28465544 -0.23864789 -0.54550599) to (31.934655 31.888648 79.670506)
  4 by 2 by 5 MPI processor grid
  reading atom labelmap ...
  reading atoms ...
  5000 atoms
  reading velocities ...
  5000 velocities
  read_data CPU = 0.069 seconds

# ----------------- Settings Section -----------------

include "test.in.settings"
# ----- SETTINGS -----
# Forcefield
	pair_coeff * * W-Mo.eam.fs W Mo

# Collection of atoms
	group alloy type  1 2
5000 atoms in group alloy


# ----------------- Run Section -----------------

include "test.in.run"
# Thermo output
	compute msd all msd

	#thermo          1000
	#thermo_style    custom step temp press pe ke etotal vol density enthalpy c_msd[1] c_msd[2] c_msd[3]
	#thermo_modify   flush yes

# Dump configuration
	#dump            d1 all custom 50000 test_W-Mo.dump id type element x y z xu yu zu vx vy vz
	#dump_modify     d1 element W Mo


# ----- HEATING FROM 300K TO Ti -----
	#fix             fheat_0 all npt temp 300 ${Ti} ${tdamp} aniso ${press} ${press} ${pdamp}
	#run             500000   # 0.5 ns
	#unfix           fheat_0

#write_data W-Mo_2000K.data nocoeff


# ----- HEATING FROM Ti TO Thigh -----
	compute in_ene_atom all pe/atom
	compute in_ene all reduce sum c_in_ene_atom

	thermo          500
	thermo_style    custom step temp press pe ke etotal vol density enthalpy c_in_ene c_msd[1] c_msd[2] c_msd[3]
	thermo_modify   flush yes

	dump            d1 all custom 50000 test_W-Mo.dump id type element x y z xu yu zu vx vy vz
	dump_modify     d1 element W Mo

	fix             fheat all npt temp ${Ti} ${Thigh} ${tdamp} aniso ${press} ${press} ${pdamp}
	fix             fheat all npt temp 2000 ${Thigh} ${tdamp} aniso ${press} ${press} ${pdamp}
	fix             fheat all npt temp 2000 6000 ${tdamp} aniso ${press} ${press} ${pdamp}
	fix             fheat all npt temp 2000 6000 0.1 aniso ${press} ${press} ${pdamp}
	fix             fheat all npt temp 2000 6000 0.1 aniso 1 ${press} ${pdamp}
	fix             fheat all npt temp 2000 6000 0.1 aniso 1 1 ${pdamp}
	fix             fheat all npt temp 2000 6000 0.1 aniso 1 1 1
	run             2000000   # 2 ns
Neighbor list info ...
  update: every = 1 steps, delay = 0 steps, check = yes
  max neighbors/atom: 2000, page size: 100000
  master list distance cutoff = 7.3
  ghost atom cutoff = 7.3
  binsize = 3.65, bins = 9 9 22
  1 neighbor lists, perpetual/occasional/extra = 1 0 0
  (1) pair eam/fs, perpetual
      attributes: half, newton on
      pair build: half/bin/atomonly/newton
      stencil: half/bin/3d
      bin: standard
Per MPI rank memory allocation (min/avg/max) = 3.845 | 3.845 | 3.845 Mbytes
   Step          Temp          Press          PotEng         KinEng         TotEng         Volume        Density        Enthalpy       c_in_ene       c_msd[1]       c_msd[2]       c_msd[3]   
         0   2046.6096      5217.09       -37941.552      1322.4607     -36619.091      83033.145      13.995488     -36348.714     -37941.552      0              0              0            
       500   1975.3317     -3999.4216     -37929.187      1276.403      -36652.784      83330.168      13.945602     -36860.797     -37929.187      0.044430969    0.045012599    0.054344276  
      1000   2013.7549     -1251.7124     -37936.771      1301.2309     -36635.54       83223.87       13.963414     -36700.559     -37936.771      0.043730204    0.039854821    0.058507812  
      1500   2010.2483      2696.1606     -37951.816      1298.9651     -36652.851      83056.333      13.991581     -36513.083     -37951.816      0.045230768    0.044948254    0.041182233  
      2000   1980.3286      154.15548     -37944.504      1279.6318     -36664.873      83178.873      13.970968     -36656.869     -37944.504      0.0422659      0.038377356    0.041071019  
      2500   2005.2189     -1136.672      -37949.806      1295.7152     -36654.091      83211.229      13.965535     -36713.125     -37949.806      0.039667852    0.042054441    0.05409965   
      3000   2025.3661      3886.238      -37927.879      1308.7338     -36619.145      83097.677      13.984619     -36417.584     -37927.879      0.043513633    0.041052568    0.043382202  
      3500   2045.7906      1394.468      -37894.203      1321.9315     -36572.272      83261.048      13.957179     -36499.805     -37894.203      0.044233744    0.045810428    0.041134728  
      4000   2028.091      -3500.14       -37943.273      1310.4945     -36632.779      83281.979      13.953671     -36814.718     -37943.273      0.044492898    0.041637327    0.055428555  
      4500   1995.6002      2698.5983     -37943.507      1289.4999     -36654.007      83088.807      13.986112     -36514.058     -37943.507      0.043445593    0.041104206    0.046844542  
      5000   2009.8216      1144.218      -37920.014      1298.6894     -36621.325      83205.629      13.966475     -36561.902     -37920.014      0.041522935    0.040396636    0.041305815  
      5500   1997.5195     -5528.108      -37926.212      1290.7401     -36635.472      83390.143      13.935572     -36923.199     -37926.212      0.041336476    0.040892786    0.048471958  
      6000   1990.2911      5960.0677     -37955.657      1286.0693     -36669.588      82968.138      14.006454     -36360.948     -37955.657      0.04204544     0.043383287    0.04955591   
      6500   2027.8926      1994.9731     -37938.975      1310.3663     -36628.609      83133.478      13.978597     -36525.094     -37938.975      0.044092422    0.041557111    0.041617458  
      7000   1984.1818     -3351.8969     -37896.955      1282.1217     -36614.833      83418.4        13.930852     -36789.352     -37896.955      0.043493093    0.042406664    0.046577496  
      7500   2029.8861      652.1662      -37947.858      1311.6545     -36636.203      83081.105      13.987409     -36602.385     -37947.858      0.039863071    0.042491058    0.044816914  
      8000   2014.9508      3641.1031     -37931.624      1302.0037     -36629.621      83073.04       13.988767     -36440.829     -37931.624      0.04172274     0.041981259    0.042508614  
      8500   2038.2078     -4017.5916     -37929.482      1317.0317     -36612.45       83346.454      13.942877     -36821.448     -37929.482      0.042821409    0.04206445     0.048701748  
      9000   2016.3046     -3044.5683     -37902.686      1302.8785     -36599.808      83370.47       13.938861     -36758.234     -37902.686      0.04676588     0.0470194      0.040761259  
      9500   2028.3924      3661.3587     -37950.502      1310.6893     -36639.813      83046.352      13.993262     -36450.032     -37950.502      0.042936858    0.042314819    0.049004463  
     10000   1986.4345      1112.787      -37923.685      1283.5773     -36640.108      83174.839      13.971646     -36582.339     -37923.685      0.040927056    0.042003401    0.04139251   
     10500   2018.1208     -3652.5382     -37915.204      1304.0521     -36611.152      83328.53       13.945876     -36801.119     -37915.204      0.042502482    0.041922422    0.046126372  
     11000   2048.4544     -336.25034     -37938.255      1323.6528     -36614.602      83253.353      13.958469     -36632.075     -37938.255      0.045018033    0.044293467    0.044955491  
     11500   1997.7394      5708.117      -37938.702      1290.8822     -36647.82       83009.644      13.99945      -36352.079     -37938.702      0.046565475    0.04335152     0.04616102   
     12000   2015.188      -1737.8015     -37910.149      1302.157      -36607.992      83281.109      13.953817     -36698.323     -37910.149      0.044518049    0.043283685    0.045038407  
     12500   2034.8123      1878.0726     -37909.403      1314.8376     -36594.565      83191.842      13.96879      -36497.047     -37909.403      0.042761955    0.043867127    0.043371345  
     13000   2035.0856     -269.15349     -37944.344      1315.0142     -36629.33       83221.804      13.963761     -36643.31      -37944.344      0.040305597    0.041597336    0.048705281  
     13500   1970.3981     -806.61289     -37919.985      1273.215      -36646.77       83246.669      13.95959      -36688.68      -37919.985      0.042066465    0.042069954    0.04325466   
     14000   2024.3285      881.15503     -37906.59       1308.0633     -36598.526      83222.431      13.963656     -36552.756     -37906.59       0.048181777    0.044389305    0.043657754  
     14500   2051.0723      4688.2222     -37916.186      1325.3444     -36590.842      83089.763      13.985951     -36347.708     -37916.186      0.046204688    0.042216222    0.057854575  
     15000   1981.0385     -2023.6092     -37909.107      1280.0905     -36629.017      83308.971      13.949151     -36734.239     -37909.107      0.04045764     0.044162009    0.042117398  
     15500   2029.8418     -2496.6266     -37923.001      1311.6258     -36611.375      83314.982      13.948144     -36741.202     -37923.001      0.039938081    0.040590088    0.044371537  
     16000   2060.3333      2949.2636     -37922.397      1331.3286     -36591.068      83127.762      13.979558     -36438.048     -37922.397      0.043790265    0.044236844    0.052785347  
     16500   2021.9053     -1688.229      -37914.864      1306.4975     -36608.367      83269.603      13.955745     -36696.109     -37914.864      0.047565616    0.042764833    0.046469155  
     17000   2043.7505     -4052.5747     -37945.899      1320.6132     -36625.286      83284.202      13.953299     -36835.947     -37945.899      0.044927245    0.04156615     0.041472055  
     17500   2067.0971      1358.7484     -37928.651      1335.6992     -36592.951      83169.06       13.972616     -36522.419     -37928.651      0.039975798    0.040525558    0.048817491  
     18000   2038.148       962.56347     -37893.929      1316.9931     -36576.936      83247.138      13.959511     -36526.922     -37893.929      0.043390334    0.04226197     0.049000963  
     18500   2065.1193     -2306.9473     -37934.695      1334.4212     -36600.273      83311.507      13.948726     -36720.232     -37934.695      0.041447493    0.041765919    0.041047445  
     19000   1998.9771     -2979.1729     -37914.747      1291.682      -36623.065      83291.267      13.952116     -36777.942     -37914.747      0.047311574    0.045999234    0.050347657  
     19500   2110.8056      1054.6276     -37887.91       1363.9424     -36523.968      83277.886      13.954357     -36469.151     -37887.91       0.044879103    0.043705468    0.050371153  
     20000   2031.5906      3450.245      -37910.961      1312.7559     -36598.205      83163.987      13.973469     -36419.114     -37910.961      0.043352073    0.044241586    0.041679901  
     20500   2048.2323     -1839.3978     -37909.846      1323.5093     -36586.336      83307.121      13.94946      -36681.978     -37909.846      0.040610122    0.04002812     0.048786471  
     21000   2042.4603     -2097.151      -37908.999      1319.7796     -36589.22       83300.036      13.950647     -36698.255     -37908.999      0.042508196    0.042982255    0.060237667  
     21500   2018.3307      4637.6577     -37900.829      1304.1877     -36596.641      83135.967      13.978178     -36355.996     -37900.829      0.046378293    0.046278159    0.040220033  
     22000   2036.3958      2631.5513     -37917.539      1315.8609     -36601.678      83131.757      13.978886     -36465.136     -37917.539      0.044406799    0.044457512    0.04210352   
     22500   2002.6344     -6224.3848     -37882.288      1294.0452     -36588.243      83445.606      13.92631      -36912.425     -37882.288      0.04247189     0.044014462    0.053647651  
     23000   2068.3748     -1061.264      -37896.199      1336.5248     -36559.674      83329.414      13.945728     -36614.87      -37896.199      0.04061919     0.042215238    0.042771989  
     23500   2015.4499      4027.2207     -37905.273      1302.3262     -36602.947      83123.99       13.980192     -36394.007     -37905.273      0.043478716    0.040959655    0.047370801  
     24000   2021.0074     -1234.606      -37918.931      1305.9173     -36613.014      83270.399      13.955612     -36677.18      -37918.931      0.044813875    0.045327665    0.04648507   
     24500   2056.7764     -2768.4217     -37897.537      1329.0302     -36568.507      83362.964      13.940116     -36712.551     -37897.537      0.044454654    0.04354708     0.05179608   
     25000   2065.4309      1810.051      -37913.306      1334.6225     -36578.684      83237.8        13.961077     -36484.646     -37913.306      0.04113691     0.041416746    0.041127072  
     25500   2025.8922      4417.5189     -37910.049      1309.0737     -36600.975      83134.082      13.978495     -36371.758     -37910.049      0.04153612     0.043525517    0.0520756    
     26000   2072.7692     -2515.8659     -37903.129      1339.3643     -36563.765      83351.641      13.94201      -36694.65      -37903.129      0.042719674    0.043338755    0.049496313  
     26500   2058.524      -639.0728      -37870.027      1330.1594     -36539.867      83325.803      13.946333     -36573.104     -37870.027      0.044605001    0.044832553    0.041626583  
     27000   2056.2818     -625.68714     -37875.16       1328.7106     -36546.449      83312.619      13.94854      -36578.984     -37875.16       0.047557137    0.045494736    0.053666991  
     27500   2039.0118     -1449.4206     -37896.615      1317.5512     -36579.063      83327.152      13.946107     -36654.446     -37896.615      0.042887082    0.041232009    0.05269954   
     28000   2060.0747      738.10523     -37879.794      1331.1615     -36548.633      83279.166      13.954143     -36510.267     -37879.794      0.040639776    0.044358541    0.044246277  
     28500   2087.5309      3584.6397     -37912.456      1348.9029     -36563.553      83136.553      13.97808      -36377.547     -37912.456      0.041418946    0.041990951    0.046025177  
     29000   2055.4564     -968.88172     -37919.657      1328.1773     -36591.479      83254.797      13.958227     -36641.826     -37919.657      0.043630484    0.042302594    0.050318537  
     29500   2035.4754     -5772.0453     -37885.244      1315.2661     -36569.978      83490.043      13.918898     -36870.761     -37885.244      0.044201654    0.048044593    0.047780124  
     30000   2063.1608      6030.4831     -37885.245      1333.1556     -36552.089      83107.949      13.982891     -36239.276     -37885.245      0.042815101    0.041286074    0.046222694  
     30500   2103.2541      1611.5358     -37878.98       1359.0628     -36519.917      83279.779      13.95404      -36436.151     -37878.98       0.040894969    0.041276081    0.051199871  
     31000   2050.7999     -3837.1623     -37886.197      1325.1684     -36561.029      83445.949      13.926253     -36760.879     -37886.197      0.04186067     0.042854375    0.045077027  
     31500   2040.9473      933.92957     -37880.655      1318.8019     -36561.854      83313.67       13.948364     -36513.289     -37880.655      0.043944305    0.044536993    0.046427496  
     32000   2080.1838      5442.6092     -37883.424      1344.1554     -36539.269      83143.891      13.976846     -36256.828     -37883.424      0.043019269    0.045193934    0.050061717  
     32500   2049.5454     -2486.1453     -37867.975      1324.3578     -36543.618      83395.877      13.934614     -36673.026     -37867.975      0.042580085    0.042843767    0.044664838  
     33000   2063.4662     -1401.2577     -37885.311      1333.353      -36551.958      83357.105      13.941096     -36624.862     -37885.311      0.041872778    0.04163455     0.050785735  
     33500   2106.603       2846.0357     -37913.521      1361.2267     -36552.295      83136.668      13.978061     -36404.614     -37913.521      0.042394208    0.042196693    0.056069593  
     34000   2083.2755     -3478.1874     -37872.572      1346.1532     -36526.419      83472.978      13.921743     -36707.632     -37872.572      0.043905351    0.043203567    0.043181685  
     34500   2070.2358     -185.15174     -37885.55       1337.7273     -36547.822      83299.143      13.950796     -36557.449     -37885.55       0.043916128    0.042502487    0.050587901  
     35000   2062.6205      159.6062      -37919.842      1332.8065     -36587.036      83255.816      13.958056     -36578.742     -37919.842      0.042028498    0.042367868    0.046175534  
     35500   2052.29       -2270.2323     -37904.815      1326.1313     -36578.683      83306.281      13.949601     -36696.726     -37904.815      0.04196104     0.043652354    0.043662215  
     36000   2083.7938      1784.1639     -37876.02       1346.4881     -36529.532      83305.882      13.949668     -36436.763     -37876.02       0.04298136     0.04106353     0.053551576  
     36500   2076.5451      1530.97       -37881.932      1341.8042     -36540.127      83243.049      13.960197     -36460.584     -37881.932      0.043665684    0.042452142    0.049188411  
     37000   2039.8449     -391.11394     -37888.728      1318.0896     -36570.638      83310.71       13.948859     -36590.975     -37888.728      0.044188603    0.042763822    0.039970379  
     37500   2063.7115     -3696.177      -37902.083      1333.5115     -36568.571      83368.583      13.939176     -36760.9       -37902.083      0.043080736    0.046276691    0.058550475  
     38000   2065.9091     -317.67685     -37867.542      1334.9315     -36532.611      83355.475      13.941368     -36549.138     -37867.542      0.042858244    0.042756246    0.052322677  
     38500   2064.5882      2173.8712     -37859.162      1334.078      -36525.084      83275.453      13.954765     -36412.094     -37859.162      0.043327811    0.042304892    0.041949943  
     39000   2067.0006      2568.8555     -37895.8        1335.6368     -36560.163      83225.406      13.963157     -36426.724     -37895.8        0.04252308     0.042534341    0.043455918  
     39500   2035.3782     -1811.7374     -37875.964      1315.2033     -36560.761      83389.188      13.935732     -36655.057     -37875.964      0.044864377    0.043412307    0.063675568  
     40000   2061.1677      1989.7294     -37872.332      1331.8677     -36540.465      83276.699      13.954556     -36437.044     -37872.332      0.044398539    0.045010141    0.044161539  
     40500   2106.6875      140.50063     -37844.089      1361.2813     -36482.807      83347.637      13.942679     -36475.498     -37844.089      0.043705092    0.043144754    0.049190151  
     41000   2045.1134     -3524.9879     -37860.78       1321.4939     -36539.286      83436.348      13.927855     -36722.857     -37860.78       0.039957707    0.042051078    0.055457312  
     41500   2071.3462      535.39515     -37868.21       1338.4448     -36529.765      83286.401      13.952931     -36501.933     -37868.21       0.043802082    0.041580656    0.051620829  
     42000   2133.2337      3783.3271     -37849.209      1378.4347     -36470.774      83254.038      13.958355     -36274.181     -37849.209      0.044916084    0.045716501    0.043962023  
     42500   2094.337       1502.0665     -37850.646      1353.3008     -36497.345      83352.829      13.941811     -36419.201     -37850.646      0.044636789    0.044851581    0.058499387  
     43000   2094.0445     -2339.9114     -37880.622      1353.1118     -36527.51       83378.093      13.937586     -36649.28      -37880.622      0.043151971    0.043502362    0.042197065  
     43500   2098.9713     -2084.8948     -37870.938      1356.2954     -36514.642      83429.413      13.929013     -36623.208     -37870.938      0.043032658    0.041518204    0.050187084  
     44000   2093.3727     -224.2935      -37849.036      1352.6777     -36496.358      83381.201      13.937067     -36508.031     -37849.036      0.043662794    0.043633022    0.053558154  
     44500   2098.6313      5014.0493     -37876.511      1356.0756     -36520.435      83212.478      13.965326     -36260.02      -37876.511      0.042980568    0.042178927    0.046220077  
     45000   2127.3138     -3924.5632     -37880.923      1374.6094     -36506.314      83461.371      13.923679     -36710.754     -37880.923      0.04384236     0.044538592    0.055352288  
     45500   2152.1935     -3301.5493     -37851.071      1390.686      -36460.385      83483.535      13.919983     -36632.417     -37851.071      0.04425549     0.044886392    0.044998814  
     46000   2113.8451      5794.9095     -37882.386      1365.9064     -36516.479      83140.688      13.977385     -36215.768     -37882.386      0.042311239    0.042360186    0.049970737  
     46500   2096.2287     -1405.4018     -37866.771      1354.5231     -36512.248      83410.822      13.932117     -36585.414     -37866.771      0.042192704    0.041358697    0.048267368  
     47000   2085.648      -3836.7131     -37853.071      1347.6862     -36505.385      83478.868      13.920761     -36705.291     -37853.071      0.043653727    0.044615461    0.044733327  
     47500   2088.6752      2720.3368     -37872.346      1349.6423     -36522.704      83262.658      13.956909     -36381.332     -37872.346      0.044006894    0.043605433    0.054682627  
     48000   2105.0101      78.497977     -37885.125      1360.1974     -36524.928      83315.308      13.94809      -36520.846     -37885.125      0.042843736    0.043389256    0.048557824  
     48500   2052.6024     -5108.9628     -37832.999      1326.3331     -36506.666      83507.856      13.915929     -36772.952     -37832.999      0.043011004    0.043597557    0.043187869  
     49000   2141.9866     -2298.6105     -37865.189      1384.0906     -36481.098      83453.961      13.924916     -36600.828     -37865.189      0.04380587     0.04314277     0.067123065  
     49500   2127.0241      4865.2152     -37879.719      1374.4223     -36505.297      83203.643      13.966809     -36252.638     -37879.719      0.041381272    0.041953691    0.043093371  
     50000   2084.6749      706.25892     -37881.044      1347.0574     -36533.986      83277.931      13.95435      -36497.276     -37881.044      0.042177282    0.04563772     0.045327017  
     50500   2107.6388     -3158.1886     -37863.774      1361.8961     -36501.878      83388.163      13.935903     -36666.252     -37863.774      0.044692813    0.042946378    0.051505606  
     51000   2130.6429     -377.81491     -37853.142      1376.7607     -36476.382      83361.25       13.940402     -36496.04      -37853.142      0.044197004    0.043502598    0.046873912  
     51500   2116.502      -686.84816     -37831.299      1367.6232     -36463.675      83430.776      13.928785     -36499.442     -37831.299      0.044648044    0.043199679    0.051382908  
     52000   2103.7526      206.79448     -37859.173      1359.3849     -36499.788      83385.542      13.936341     -36489.025     -37859.173      0.043098558    0.043381149    0.046853464  
     52500   2065.6504      838.34293     -37848.322      1334.7644     -36513.558      83335.217      13.944757     -36469.952     -37848.322      0.045915388    0.050089488    0.048005377  
     53000   2095.8746     -1896.9262     -37883.81       1354.2944     -36529.516      83341.321      13.943736     -36628.189     -37883.81       0.046016906    0.042676544    0.048699735  
     53500   2117.8337      1045.6641     -37844.565      1368.4837     -36476.081      83307.822      13.949343     -36421.71      -37844.565      0.044509184    0.044430476    0.046883821  
     54000   2130.531      -2579.5747     -37862.29       1376.6883     -36485.602      83468.894      13.922424     -36619.991     -37862.29       0.043007986    0.042084726    0.0518899    
     54500   2105.6254     -50.451104     -37892.961      1360.5951     -36532.366      83302.748      13.950192     -36534.989     -37892.961      0.041245099    0.042397022    0.051041556  
     55000   2134.6068      6883.1715     -37850.478      1379.322      -36471.156      83207.854      13.966102     -36113.684     -37850.478      0.043260632    0.04556544     0.04299715   
     55500   2061.3463     -2048.3355     -37836.221      1331.9832     -36504.238      83487.928      13.91925      -36610.975     -37836.221      0.044923228    0.044416319    0.056666768  
     56000   2096.9688     -5419.9974     -37879.128      1355.0014     -36524.127      83489.984      13.918908     -36806.565     -37879.128      0.044323493    0.041621164    0.054066897  
     56500   2126.8255      5794.4414     -37858.329      1374.294      -36484.035      83178.995      13.970947     -36183.21      -37858.329      0.042969972    0.040745444    0.04088455   
     57000   2087.5392      2881.7812     -37865.183      1348.9082     -36516.275      83258.84       13.957549     -36366.52      -37865.183      0.042877713    0.043541296    0.060365866  
     57500   2113.5149     -4968.9335     -37855.368      1365.693      -36489.675      83530.097      13.912223     -36748.732     -37855.368      0.042875129    0.043991082    0.055458615  
     58000   2117.2034      1532.7712     -37836.94       1368.0764     -36468.863      83333.253      13.945086     -36389.14      -37836.94       0.046807915    0.045516022    0.044181662  
     58500   2117.3731     -77.717632     -37813.518      1368.1861     -36445.332      83432.926      13.928426     -36449.379     -37813.518      0.044648998    0.039783716    0.053969847  
     59000   2117.5337     -632.33381     -37825.821      1368.2898     -36457.531      83453.151      13.925051     -36490.468     -37825.821      0.044679272    0.042573724    0.045979963  
     59500   2092.7517      17.446081     -37880.723      1352.2764     -36528.447      83344.221      13.943251     -36527.539     -37880.723      0.043868045    0.042264455    0.054840957  
     60000   2094.5068     -2575.3682     -37853.719      1353.4105     -36500.308      83433.66       13.928304     -36634.421     -37853.719      0.04311388     0.043648783    0.050909526  
     60500   2119.0636      4564.1053     -37842.437      1369.2785     -36473.159      83272.949      13.955185     -36235.94      -37842.437      0.048193015    0.045118073    0.05048719   
     61000   2145.4624      938.05102     -37825.984      1386.3366     -36439.648      83384.861      13.936455     -36390.827     -37825.984      0.045144436    0.043166192    0.051944959  
     61500   2102.7459     -7946.5294     -37854.252      1358.7344     -36495.518      83623.722      13.896647     -36910.278     -37854.252      0.045761566    0.042258822    0.046088455  
     62000   2097.8236      2747.4921     -37849.806      1355.5537     -36494.252      83285.898      13.953015     -36351.43      -37849.806      0.041932658    0.043146232    0.048328012  
     62500   2110.369       3663.0126     -37799.975      1363.6602     -36436.315      83346.65       13.942844     -36245.762     -37799.975      0.045993118    0.045014711    0.063182671  
     63000   2071.4884     -2256.988      -37820.064      1338.5367     -36481.528      83565.184      13.906382     -36599.246     -37820.064      0.046895723    0.046483348    0.058372235  
     63500   2142.7737     -790.00922     -37849.823      1384.5992     -36465.224      83384.789      13.936467     -36506.34      -37849.823      0.043895037    0.043652749    0.045172382  
     64000   2139.8972      4068.6163     -37843.063      1382.7405     -36460.323      83301.994      13.950319     -36248.783     -37843.063      0.042212056    0.043341331    0.054312828  
     64500   2093.102      -430.28048     -37819.716      1352.5028     -36467.213      83440.313      13.927193     -36489.622     -37819.716      0.044085453    0.043301963    0.049175486  
     65000   2194.8993     -9947.1818     -37817.476      1418.2813     -36399.195      83758.795      13.874237     -36919.215     -37817.476      0.0455076      0.045038179    0.050389498  
     65500   2130.0039      5999.8494     -37839.163      1376.3477     -36462.815      83260.233      13.957316     -36151.021     -37839.163      0.047127135    0.043607757    0.061250086  
     66000   2146.3667      3748.7433     -37863.427      1386.9209     -36476.506      83248.648      13.959258     -36281.723     -37863.427      0.045756985    0.044683597    0.050323308  
     66500   2117.7671     -1623.7731     -37809.748      1368.4407     -36441.307      83509.942      13.915581     -36525.943     -37809.748      0.043689353    0.043542663    0.049791031  
     67000   2135.6786     -2137.8271     -37817.961      1380.0146     -36437.946      83488.963      13.919078     -36549.348     -37817.961      0.044508964    0.043476654    0.050276009  
     67500   2076.4251      1050.3864     -37838.25       1341.7266     -36496.523      83346.348      13.942895     -36441.881     -37838.25       0.043955119    0.043783481    0.064043803  
     68000   2140.4092      3795.5617     -37847.147      1383.0714     -36464.076      83238.861      13.960899     -36266.883     -37847.147      0.046347802    0.044625997    0.041694596  
     68500   2171.8376     -1342.2262     -37843.096      1403.3795     -36439.717      83479.51       13.920654     -36509.652     -37843.096      0.044498001    0.041829793    0.046305975  
     69000   2114.4819      3047.0023     -37822.372      1366.3179     -36456.054      83354.688      13.9415       -36297.531     -37822.372      0.045235762    0.043149137    0.058274219  
     69500   2139.9269     -2664.1937     -37854.708      1382.7597     -36471.948      83435.737      13.927957     -36610.69      -37854.708      0.044685363    0.043943329    0.047063452  
     70000   2163.1821     -1159.7231     -37826.144      1397.7866     -36428.357      83476.028      13.921235     -36488.781     -37826.144      0.044677432    0.044072852    0.047205858  
     70500   2122.5139      1396.3317     -37804.465      1371.5079     -36432.957      83423.131      13.930062     -36360.252     -37804.465      0.04670372     0.045682805    0.052975513  
     71000   2109.8184     -705.7799      -37837.158      1363.3045     -36473.853      83421.237      13.930378     -36510.601     -37837.158      0.043536659    0.042380434    0.052127235  
     71500   2103.4677      3614.2882     -37801.337      1359.2008     -36442.137      83363.292      13.940061     -36254.081     -37801.337      0.045751617    0.044156952    0.045885985  
     72000   2164.9541     -2757.9376     -37809.461      1398.9316     -36410.529      83526.821      13.912769     -36554.31      -37809.461      0.044236294    0.04362784     0.052047508  
     72500   2121.5995     -3244.0541     -37818.219      1370.9171     -36447.302      83546.203      13.909541     -36616.465     -37818.219      0.042711474    0.044631388    0.062349126  
     73000   2154.2233      1699.5249     -37822.358      1391.9976     -36430.36       83365.606      13.939674     -36341.929     -37822.358      0.044636587    0.043572499    0.044464482  
     73500   2179.7519      1122.0531     -37805.345      1408.4935     -36396.851      83453.408      13.925008     -36338.406     -37805.345      0.046433801    0.046472036    0.048194272  
     74000   2154.3619     -3986.9355     -37821.1        1392.0872     -36429.013      83524.821      13.913102     -36636.86      -37821.1        0.042923659    0.043401297    0.061028701  
     74500   2153.3823      2655.3183     -37847.975      1391.4542     -36456.521      83302.196      13.950285     -36318.462     -37847.975      0.04493353     0.042185981    0.04407018   
     75000   2188.0144      4870.5944     -37845.876      1413.8325     -36432.044      83266.166      13.956321     -36178.916     -37845.876      0.04452539     0.042857944    0.044873455  
     75500   2130.9038     -5728.1815     -37807.236      1376.9292     -36430.307      83652.202      13.891916     -36729.385     -37807.236      0.044435206    0.044535152    0.059486085  
     76000   2131.2154      635.80454     -37803.681      1377.1306     -36426.55       83475.854      13.921264     -36393.424     -37803.681      0.045813707    0.044485444    0.047241759  
     76500   2130.8463      5906.4995     -37817.841      1376.8921     -36440.949      83227.625      13.962784     -36134.127     -37817.841      0.043824768    0.044330783    0.048074843  
     77000   2140.0481     -1724.5579     -37809.754      1382.838      -36426.916      83534.696      13.911458     -36516.832     -37809.754      0.044857614    0.044331438    0.052219459  
     77500   2180.845       1703.212      -37827.214      1409.1998     -36418.014      83405.58       13.932993     -36329.349     -37827.214      0.045795723    0.044520322    0.057278643  
     78000   2196.0879      2659.7937     -37797.804      1419.0493     -36378.755      83405.99       13.932925     -36240.291     -37797.804      0.046589438    0.045748593    0.056007558  
     78500   2123.7834     -1490.9044     -37770.323      1372.3282     -36397.995      83573.059      13.905072     -36475.764     -37770.323      0.045265849    0.045921733    0.04412622   
     79000   2167.9648     -1338.8884     -37830.898      1400.877      -36430.021      83483.117      13.920052     -36499.785     -37830.898      0.043024755    0.044598664    0.061489907  
     79500   2154.2774      5060.4993     -37828.854      1392.0326     -36436.821      83265.15       13.956492     -36173.827     -37828.854      0.0457858      0.043158751    0.05324712   
     80000   2151.0666     -3941.0458     -37811.9        1389.9579     -36421.943      83575.101      13.904732     -36627.521     -37811.9        0.043656554    0.046041691    0.043883674  
     80500   2168.3816     -3582.2788     -37810.398      1401.1463     -36409.252      83539.244      13.9107       -36596.036     -37810.398      0.045054033    0.042353628    0.050902499  
     81000   2184.748       4235.4171     -37818.256      1411.7218     -36406.534      83327.937      13.945976     -36186.253     -37818.256      0.043230652    0.042670637    0.05977843   
     81500   2121.9584      1203.3595     -37812.587      1371.149      -36441.438      83396.699      13.934477     -36378.8       -37812.587      0.044610792    0.043779327    0.048142798  
     82000   2098.054      -358.21185     -37801.782      1355.7026     -36446.079      83475.64       13.921299     -36464.743     -37801.782      0.044177413    0.04407424     0.047734802  
     82500   2154.7028     -1287.2648     -37778.669      1392.3075     -36386.362      83532.171      13.911878     -36453.475     -37778.669      0.043734676    0.043801551    0.057930613  
     83000   2171.2746      100.46554     -37784.562      1403.0157     -36381.546      83500.609      13.917137     -36376.31      -37784.562      0.046740261    0.048626905    0.057409185  
     83500   2196.3399     -2760.4564     -37825.193      1419.2122     -36405.98       83548.451      13.909167     -36549.93      -37825.193      0.044547235    0.041863004    0.04484808   
     84000   2139.9581      1532.1845     -37832.038      1382.7798     -36449.258      83350.663      13.942173     -36369.549     -37832.038      0.043359148    0.040742052    0.050746493  
     84500   2116.7806      637.24534     -37772.165      1367.8032     -36404.362      83513.218      13.915035     -36371.146     -37772.165      0.043419579    0.045635168    0.056110203  
     85000   2211.3848     -3058.6552     -37803.513      1428.9337     -36374.579      83570.355      13.905522     -36534.12      -37803.513      0.044746297    0.044203983    0.04865882   
     85500   2179.7005     -369.92212     -37820.124      1408.4602     -36411.664      83478.323      13.920852     -36430.938     -37820.124      0.044577396    0.044783614    0.048467556  
     86000   2178.124       2763.6724     -37815.15       1407.4416     -36407.708      83389.972      13.935601     -36263.865     -37815.15       0.045381369    0.044204979    0.057997334  
     86500   2151.7461     -922.38869     -37779.879      1390.3969     -36389.482      83547.104      13.909391     -36437.58      -37779.879      0.045004383    0.042370327    0.051516548  
     87000   2181.5143     -306.97126     -37793.194      1409.6323     -36383.562      83501.828      13.916933     -36399.56      -37793.194      0.045224259    0.045508431    0.048393685  
     87500   2148.6201      1845.5007     -37797.812      1388.377      -36409.435      83401.31       13.933706     -36313.367     -37797.812      0.044236256    0.045495818    0.051471789  
     88000   2169.4582      461.56578     -37794.041      1401.842      -36392.199      83499.173      13.917376     -36368.144     -37794.041      0.044711647    0.04444761     0.060341319  
     88500   2178.2871      167.5195      -37770.536      1407.547      -36362.989      83512.844      13.915098     -36354.257     -37770.536      0.043992851    0.046694308    0.043816399  
     89000   2169.2245     -2402.8519     -37787.33       1401.691      -36385.639      83560.524      13.907158     -36510.958     -37787.33       0.042827169    0.04359092     0.056792398  
     89500   2173.4973      3396.0563     -37753.45       1404.452      -36348.998      83399.856      13.933949     -36172.219     -37753.45       0.043403615    0.046192134    0.058284153  
     90000   2178.9248     -473.64608     -37799.894      1407.959      -36391.935      83505.985      13.91624      -36416.622     -37799.894      0.044967202    0.046819577    0.04382747   
     90500   2176.0628      179.02317     -37820.896      1406.1097     -36414.786      83446.34       13.926187     -36405.462     -37820.896      0.044693652    0.042290049    0.052500983  
     91000   2243.2158      2335.7649     -37817.998      1449.502      -36368.496      83422.753      13.930125     -36246.876     -37817.998      0.044927291    0.044681421    0.04996723   
     91500   2229.2405     -4551.8552     -37774.912      1440.4716     -36334.441      83684.542      13.886548     -36572.192     -37774.912      0.043948419    0.045100517    0.051111503  
     92000   2190.4335     -4372.2763     -37774.398      1415.3957     -36359.002      83660.437      13.890549     -36587.308     -37774.398      0.042823175    0.045604078    0.061555066  
     92500   2199.5992      5302.0039     -37806.241      1421.3183     -36384.923      83380.052      13.937259     -36108.997     -37806.241      0.044345718    0.041732727    0.045953042  
     93000   2196.5607      575.03587     -37798.38       1419.3549     -36379.025      83494.877      13.918092     -36349.058     -37798.38       0.046547733    0.044425318    0.04999312   
     93500   2220.848      -1911.4967     -37748.464      1435.0486     -36313.415      83640.924      13.893789     -36413.204     -37748.464      0.044286107    0.045247908    0.064537709  
     94000   2206.1184      3611.955      -37798.5        1425.5308     -36372.969      83423.814      13.929948     -36184.898     -37798.5        0.045417723    0.045813472    0.043440262  
     94500   2206.4547      1011.5255     -37804.046      1425.7481     -36378.298      83440.72       13.927125     -36325.618     -37804.046      0.04300745     0.043513563    0.049990964  
     95000   2187.3304     -5618.1073     -37769.142      1413.3905     -36355.752      83747.43       13.87612      -36649.416     -37769.142      0.044426567    0.046611071    0.058218314  
     95500   2161.9891     -490.95327     -37789.906      1397.0157     -36392.891      83497.494      13.917656     -36418.477     -37789.906      0.044584565    0.044691015    0.049257701  
     96000   2186.0398      158.33022     -37784.923      1412.5566     -36372.366      83505.895      13.916256     -36364.114     -37784.923      0.044253914    0.047150028    0.047988009  
     96500   2200.7279      1001.5266     -37767.855      1422.0476     -36345.807      83511.915      13.915252     -36293.604     -37767.855      0.042405224    0.043892229    0.0488005    
     97000   2221.7604     -2224.0776     -37805.855      1435.6382     -36370.216      83526.649      13.912798     -36486.165     -37805.855      0.0441098      0.044927368    0.058522733  
     97500   2170.8583     -5131.6108     -37807.884      1402.7467     -36405.137      83662.859      13.890147     -36673.101     -37807.884      0.043334857    0.048112327    0.046975078  
     98000   2215.5512      2635.9187     -37792.248      1431.626      -36360.622      83418.457      13.930842     -36223.381     -37792.248      0.044902464    0.046410076    0.053148398  
     98500   2233.0212      987.90119     -37792.487      1442.9146     -36349.573      83470.547      13.922149     -36298.105     -37792.487      0.046006944    0.046683607    0.049829406  
     99000   2168.3921     -3860.4553     -37801.698      1401.1531     -36400.545      83598.493      13.900841     -36601.976     -37801.698      0.042780378    0.045537318    0.04950876   
     99500   2192.6959     -1855.196      -37786.723      1416.8575     -36369.865      83569.451      13.905672     -36466.632     -37786.723      0.044803319    0.043856453    0.052970244  
    100000   2234.7346      4079.0125     -37775.518      1444.0217     -36331.496      83427.759      13.929289     -36119.096     -37775.518      0.043849169    0.045212074    0.055424945  
    100500   2227.2756     -598.93712     -37783.642      1439.2019     -36344.44       83565.583      13.906316     -36375.679     -37783.642      0.045716968    0.043735076    0.05372683   
    101000   2204.8065     -7262.0274     -37793.72       1424.683      -36369.037      83707.108      13.882804     -36748.448     -37793.72       0.046834449    0.049690662    0.060637425  
    101500   2236.6556      6750.0975     -37815.241      1445.2631     -36369.978      83244.784      13.959906     -36019.261     -37815.241      0.044240291    0.042351305    0.044331798  
    102000   2209.7134     -1753.4586     -37756.918      1427.8537     -36329.065      83653.037      13.891777     -36420.616     -37756.918      0.045472694    0.046954515    0.066644702  
    102500   2163.5487     -4348.8252     -37767.581      1398.0234     -36369.558      83685.469      13.886394     -36596.707     -37767.581      0.043670284    0.047304116    0.050122453  
    103000   2183.549       5809.8483     -37782.011      1410.947      -36371.064      83327.987      13.945967     -36068.898     -37782.011      0.043377527    0.043000702    0.049909424  
    103500   2198.3378      1073.6138     -37764.109      1420.5032     -36343.606      83519.286      13.914024     -36287.64      -37764.109      0.047841678    0.043414462    0.072727873  
    104000   2219.0917     -3861.3606     -37762.373      1433.9137     -36328.46       83700.421      13.883913     -36530.184     -37762.373      0.044227688    0.044141099    0.049532089  
    104500   2189.7366      1440.9656     -37769.737      1414.9453     -36354.792      83508.836      13.915765     -36279.686     -37769.737      0.044723992    0.045178059    0.058501483  
    105000   2197.2063      4423.8728     -37773.838      1419.772      -36354.066      83402.739      13.933468     -36123.777     -37773.838      0.043329374    0.043937253    0.059913256  
    105500   2230.0578     -58.261705     -37750.406      1440.9997     -36309.406      83576.519      13.904496     -36312.446     -37750.406      0.045398485    0.046812297    0.055073901  
    106000   2202.4134     -1280.0999     -37736.727      1423.1367     -36313.59       83668.887      13.889146     -36380.44      -37736.727      0.04698134     0.046072803    0.053847632  
    106500   2222.9509      5636.149      -37790.544      1436.4074     -36354.136      83326.908      13.946148     -36061.008     -37790.544      0.044744294    0.044361862    0.071755259  
    107000   2200.0615      2788.3966     -37764.499      1421.617      -36342.882      83461.649      13.923633     -36197.627     -37764.499      0.042898932    0.045708795    0.046577179  
    107500   2228.6166     -5671.8109     -37756.453      1440.0684     -36316.385      83753.334      13.875142     -36612.877     -37756.453      0.043065113    0.045203281    0.052280339  
    108000   2215.9426     -1513.127      -37772.968      1431.8789     -36341.089      83579.058      13.904074     -36420.023     -37772.968      0.045869801    0.044076891    0.05952306   
    108500   2237.4879      5749.1814     -37778.148      1445.8008     -36332.347      83362.128      13.940256     -36033.214     -37778.148      0.04916203     0.047481392    0.045825719  
    109000   2233.4409     -4206.7741     -37751.021      1443.1858     -36307.835      83711.027      13.882154     -36527.632     -37751.021      0.045486144    0.046123356    0.056547986  
    109500   2203.6162     -3618.7908     -37761.786      1423.9139     -36337.872      83712.093      13.881977     -36526.95      -37761.786      0.044123787    0.044723398    0.061998922  
    110000   2248.3583      1648.5115     -37772.857      1452.825      -36320.032      83503.085      13.916724     -36234.114     -37772.857      0.043832509    0.045264989    0.047213294  
    110500   2270.8117     -178.20792     -37758.979      1467.3337     -36291.645      83615.49       13.898016     -36300.946     -37758.979      0.045093921    0.045352663    0.059094783  
    111000   2269.1172     -881.11789     -37742.125      1466.2388     -36275.886      83658.989      13.890789     -36321.894     -37742.125      0.04640658     0.046868777    0.057032374  
    111500   2194.298       2826.0249     -37763.261      1417.8928     -36345.368      83497.247      13.917697     -36198.09      -37763.261      0.045794886    0.04811736     0.046724589  
    112000   2230.4187     -1860.9523     -37746.624      1441.2329     -36305.391      83646.061      13.892936     -36402.547     -37746.624      0.044697297    0.043264482    0.072684216  
    112500   2213.313      -2956.6271     -37749.197      1430.1797     -36319.017      83647.301      13.89273      -36473.378     -37749.197      0.04370013     0.044287405    0.057657513  
    113000   2239.1919      3891.1992     -37765.709      1446.9019     -36318.807      83414.726      13.931465     -36116.218     -37765.709      0.043042836    0.04575512     0.045823378  
    113500   2229.9323      258.95708     -37750.813      1440.9186     -36309.895      83604.633      13.89982      -36296.382     -37750.813      0.045968821    0.044524887    0.062002223  
    114000   2232.961      -4644.0579     -37772.608      1442.8757     -36329.733      83696.902      13.884497     -36572.336     -37772.608      0.044635313    0.043447254    0.058993277  
    114500   2238.9905     -1680.1041     -37773.282      1446.7717     -36326.51       83639.326      13.894055     -36414.217     -37773.282      0.044782469    0.047502559    0.048389489  
    115000   2244.0042      7114.4682     -37745.691      1450.0115     -36295.679      83399.985      13.933928     -35925.341     -37745.691      0.043681286    0.042260403    0.059587537  
    115500   2205.5659     -448.44857     -37744.226      1425.1738     -36319.052      83635.179      13.894744     -36342.462     -37744.226      0.045336862    0.045986879    0.05071146   
    116000   2244.8585     -3703.376      -37784.122      1450.5635     -36333.558      83679.297      13.887418     -36526.98      -37784.122      0.04442547     0.042850057    0.053756046  
    116500   2232.0794      1466.3059     -37771.957      1442.306      -36329.651      83452.813      13.925107     -36253.275     -37771.957      0.04652412     0.04338805     0.049424386  
    117000   2267.4304      140.72783     -37744.825      1465.1488     -36279.676      83575.081      13.904735     -36272.335     -37744.825      0.045228188    0.044880522    0.055716829  
    117500   2220.2276     -3032.0527     -37708.978      1434.6477     -36274.33       83793.152      13.868548     -36432.906     -37708.978      0.046827442    0.046445989    0.047601579  
    118000   2215.8508      3487.4481     -37746.42       1431.8196     -36314.6        83477.488      13.920991     -36132.895     -37746.42       0.041475238    0.045082936    0.060433662  
    118500   2236.5867      2759.5733     -37727.405      1445.2185     -36282.186      83536.625      13.911136     -36138.304     -37727.405      0.046209051    0.046832839    0.054015528  
    119000   2245.109      -6020.5538     -37751.399      1450.7253     -36300.674      83781.453      13.870485     -36615.502     -37751.399      0.047978011    0.044385773    0.046533705  
    119500   2236.3594      492.22139     -37707.955      1445.0717     -36262.883      83637.148      13.894417     -36237.188     -37707.955      0.046199021    0.04610034     0.057463325  
    120000   2243.675       1270.1976     -37750.214      1449.7988     -36300.415      83564.585      13.906482     -36234.166     -37750.214      0.045229918    0.045539419    0.049745522  
    120500   2270.3851     -4939.568      -37746.688      1467.0581     -36279.63       83740.487      13.87727      -36537.805     -37746.688      0.04431913     0.046282941    0.059218513  
    121000   2192.2698     -220.09024     -37754.403      1416.5822     -36337.821      83585.189      13.903054     -36349.303     -37754.403      0.047375748    0.045356346    0.052608874  
    121500   2280.996       8152.4683     -37735.26       1473.9145     -36261.345      83385.23       13.936394     -35837.05      -37735.26       0.046080714    0.045990785    0.046534158  
    122000   2229.1225     -4579.2264     -37751.913      1440.3954     -36311.517      83731.565      13.878749     -36550.833     -37751.913      0.048943535    0.046423414    0.053492164  
    122500   2208.9957      2226.5933     -37763.565      1427.39       -36336.175      83480.926      13.920418     -36220.159     -37763.565      0.043998179    0.04626593     0.052557958  
    123000   2206.3921      824.25589     -37755.277      1425.7076     -36329.569      83532.133      13.911884     -36286.595     -37755.277      0.045680258    0.047183577    0.045699485  
    123500   2297.7784     -324.75781     -37763.063      1484.7588     -36278.304      83627.068      13.896091     -36295.255     -37763.063      0.044793092    0.044452225    0.068827862  
    124000   2289.8262      1455.9701     -37733.015      1479.6203     -36253.394      83639.829      13.893971     -36177.387     -37733.015      0.045928553    0.044096093    0.04882517   
    124500   2287.6763     -1917.0618     -37712.594      1478.2311     -36234.363      83740.1        13.877334     -36334.561     -37712.594      0.04741513     0.049437997    0.064487548  
    125000   2261.3662      1168.9238     -37743.069      1461.2303     -36281.839      83594.758      13.901462     -36220.849     -37743.069      0.043930333    0.044295445    0.072496966  
    125500   2236.5045     -178.00856     -37748.175      1445.1654     -36303.009      83595.675      13.90131      -36312.297     -37748.175      0.043585897    0.045655298    0.051029501  
    126000   2269.125      -3292.8835     -37763.139      1466.2438     -36296.895      83678.329      13.887579     -36468.875     -37763.139      0.044361104    0.045444855    0.064445619  
    126500   2242.7212     -1639.5872     -37715.165      1449.1824     -36265.983      83683.181      13.886773     -36351.62      -37715.165      0.04805062     0.044749821    0.059705125  
    127000   2237.9124      3839.487      -37717.141      1446.0751     -36271.066      83500.029      13.917233     -36070.965     -37717.141      0.046180695    0.045295805    0.051656505  
    127500   2264.0026     -611.4803      -37708.71       1462.9339     -36245.776      83759.565      13.874109     -36277.743     -37708.71       0.043560743    0.047599288    0.063390623  
    128000   2250.6056     -1411.9428     -37735.385      1454.2771     -36281.108      83685.606      13.886371     -36354.857     -37735.385      0.047556719    0.045116       0.052563322  
    128500   2219.0182      5282.4475     -37735.843      1433.8662     -36301.976      83430.877      13.928768     -36026.901     -37735.843      0.04726951     0.046155684    0.052200759  
    129000   2245.2114     -452.31336     -37728.102      1450.7915     -36277.31       83663.282      13.890076     -36300.929     -37728.102      0.048128647    0.044259825    0.060678218  
    129500   2282.3935     -4297.2636     -37735.069      1474.8175     -36260.251      83745.621      13.87642      -36484.869     -37735.069      0.047951943    0.042607328    0.054945652  
    130000   2233.3609     -1940.8716     -37757.589      1443.1341     -36314.455      83627.357      13.896043     -36415.761     -37757.589      0.044603487    0.049080723    0.05129464   
    130500   2229.6128      1786.4297     -37749.128      1440.7122     -36308.416      83578.037      13.904243     -36215.226     -37749.128      0.044508161    0.044927213    0.067685059  
    131000   2246.0865      4070.4618     -37721.521      1451.357      -36270.164      83521.775      13.91361      -36057.97      -37721.521      0.045874036    0.046102027    0.049026396  
    131500   2256.599      -2028.5933     -37709.782      1458.1499     -36251.632      83785.135      13.869875     -36357.717     -37709.782      0.047090192    0.049569267    0.049395818  
    132000   2275.5995     -1512.8858     -37748.594      1470.4275     -36278.166      83636.954      13.894449     -36357.142     -37748.594      0.046617358    0.043297839    0.081706149  
    132500   2322.2567      948.13153     -37701.826      1500.576      -36201.25       83628.383      13.895873     -36151.761     -37701.826      0.046826027    0.046839168    0.045839265  
    133000   2300.6071      925.10834     -37725.107      1486.5866     -36238.52       83633.582      13.895009     -36190.229     -37725.107      0.045079398    0.047167869    0.049301661  
    133500   2284.725      -2421.3103     -37737.897      1476.3241     -36261.573      83695.446      13.884738     -36388.059     -37737.897      0.047042051    0.047404127    0.065040912  
    134000   2255.3405      1697.3196     -37744.724      1457.3366     -36287.388      83572.925      13.905094     -36198.852     -37744.724      0.045936473    0.043708105    0.051896796  
    134500   2265.2896     -2286.8113     -37746.898      1463.7655     -36283.133      83679.367      13.887406     -36402.57      -37746.898      0.046293452    0.047801534    0.048717587  
    135000   2313.748      -2236.1337     -37742.236      1495.0779     -36247.158      83656.761      13.891159     -36363.916     -37742.236      0.044974479    0.044750528    0.066766756  
    135500   2307.2074      4963.0177     -37699.441      1490.8516     -36208.589      83481.766      13.920278     -35949.99      -37699.441      0.042378392    0.046197418    0.046882227  
    136000   2257.1265     -7263.5061     -37764.889      1458.4907     -36306.398      83840.416      13.86073      -36686.49      -37764.889      0.046060068    0.048345629    0.051841082  
    136500   2246.8873     -2637.6533     -37710.559      1451.8745     -36258.685      83701.49       13.883736     -36396.482     -37710.559      0.047943375    0.045243436    0.065532736  
    137000   2261.2133      4317.0498     -37692.571      1461.1315     -36231.44       83506.232      13.916199     -36006.433     -37692.571      0.047078113    0.044985359    0.048602126  
    137500   2250.7352      915.08554     -37695.891      1454.3608     -36241.53       83647.677      13.892668     -36193.755     -37695.891      0.04793058     0.04899792     0.051197053  
    138000   2226.921      -2961.2337     -37743.016      1438.9728     -36304.043      83667.211      13.889424     -36458.682     -37743.016      0.045526548    0.044501626    0.060219642  
    138500   2220.8586     -838.42678     -37690.759      1435.0554     -36255.704      83719.606      13.880732     -36299.515     -37690.759      0.045454666    0.047270807    0.06613565   
    139000   2278.5989      5860.3442     -37695.22       1472.3656     -36222.854      83496.235      13.917866     -35917.447     -37695.22       0.046341343    0.047647688    0.048045037  
    139500   2280.3371     -595.14013     -37698.434      1473.4888     -36224.946      83734.143      13.878322     -36256.049     -37698.434      0.047794646    0.042599598    0.061967547  
    140000   2309.9395     -7828.6167     -37719.315      1492.617      -36226.698      83908.275      13.849521     -36636.694     -37719.315      0.047987261    0.04640934     0.078212412  
    140500   2300.2828      1216.7334     -37735.086      1486.3771     -36248.709      83590.135      13.902231     -36185.229     -37735.086      0.046477792    0.047037935    0.049691529  
    141000   2313.3264      5310.2852     -37715.61       1494.8055     -36220.805      83524.815      13.913103     -35943.968     -37715.61       0.044950426    0.044535104    0.067915876  
    141500   2277.631      -4019.7042     -37668.747      1471.7402     -36197.007      83889.398      13.852637     -36407.477     -37668.747      0.047671264    0.050014806    0.062252915  
    142000   2264.3379     -1657.4435     -37685.72       1463.1505     -36222.569      83720.459      13.88059      -36309.178     -37685.72       0.046787733    0.044367507    0.05480054   
    142500   2283.5251      4874.5121     -37721.804      1475.5488     -36246.255      83501.718      13.916952     -35992.207     -37721.804      0.045996677    0.045940835    0.049554358  
    143000   2294.7845      39.955798     -37704.868      1482.8242     -36222.043      83680.096      13.887285     -36219.956     -37704.868      0.047437759    0.047733371    0.053503723  
    143500   2280.9222     -3366.2021     -37701.563      1473.8668     -36227.696      83824.82       13.863309     -36403.813     -37701.563      0.045956037    0.045854591    0.065430119  
    144000   2285.9392      215.36319     -37720.687      1477.1087     -36243.578      83642.532      13.893522     -36232.335     -37720.687      0.046801718    0.046930634    0.054136291  
    144500   2305.4887      1696.7952     -37728.96       1489.741      -36239.219      83640.181      13.893913     -36150.64      -37728.96       0.045783629    0.046581396    0.053159635  
    145000   2259.8919      1262.2569     -37679.625      1460.2776     -36219.347      83699.475      13.88407      -36153.405     -37679.625      0.046977515    0.045120176    0.074794908  
    145500   2305.3905     -434.01641     -37692.565      1489.6776     -36202.887      83722.079      13.880321     -36225.567     -37692.565      0.045340052    0.049463416    0.04547019   
    146000   2310.5096      106.5727      -37685.782      1492.9854     -36192.797      83738.169      13.877654     -36187.227     -37685.782      0.046766035    0.044965957    0.058411819  
    146500   2275.2101      5628.4586     -37712.674      1470.1758     -36242.498      83513.515      13.914986     -35949.114     -37712.674      0.044853058    0.046290232    0.061837583  
    147000   2290.0243     -5670.6335     -37681.775      1479.7484     -36202.027      83867.019      13.856333     -36498.86      -37681.775      0.049488892    0.048647436    0.04730444   
    147500   2312.6823     -2684.112      -37692.728      1494.3893     -36198.339      83776.554      13.871296     -36338.689     -37692.728      0.047490588    0.047537365    0.06982451   
    148000   2335.4742      5724.6006     -37712.166      1509.1168     -36203.049      83504.071      13.91656      -35904.688     -37712.166      0.045470538    0.047130414    0.053307339  
    148500   2323.6445     -4363.4976     -37673.126      1501.4728     -36171.654      83878.476      13.854441     -36400.095     -37673.126      0.047383961    0.047441563    0.055700209  
    149000   2327.5941      449.58475     -37704.928      1504.0249     -36200.904      83665.34       13.889735     -36177.426     -37704.928      0.043837358    0.047307169    0.058755517  
    149500   2301.9228      575.92025     -37726.772      1487.4368     -36239.335      83637.797      13.894309     -36209.271     -37726.772      0.048024221    0.048828759    0.05498806   
    150000   2278.4762     -1827.3563     -37695.754      1472.2863     -36223.467      83735.54       13.87809      -36318.971     -37695.754      0.051412841    0.046453845    0.052574785  
    150500   2312.0825     -3359.0739     -37693.081      1494.0018     -36199.079      83839.192      13.860932     -36374.853     -37693.081      0.047759719    0.046353508    0.0723357    
    151000   2291.2347      5008.9031     -37680.948      1480.5305     -36200.417      83551.819      13.908607     -35939.208     -37680.948      0.04572165     0.045628135    0.061973065  
    151500   2315.5577     -429.12141     -37704.235      1496.2473     -36207.988      83734.609      13.878244     -36230.415     -37704.235      0.044674212    0.047050124    0.045058776  
    152000   2295.8858     -2733.3641     -37718.149      1483.5359     -36234.613      83743.49       13.876773     -36377.482     -37718.149      0.049882357    0.048450678    0.062283685  
    152500   2311.256       552.22878     -37692.312      1493.4677     -36198.845      83685.076      13.886459     -36170         -37692.312      0.051063645    0.046332425    0.053578103  
    153000   2322.5084     -1591.2373     -37705.26       1500.7387     -36204.521      83704.355      13.883261     -36287.654     -37705.26       0.045531458    0.046163399    0.059501525  
    153500   2272.0282      3509.8033     -37696.077      1468.1198     -36227.957      83575.339      13.904692     -36044.873     -37696.077      0.046295586    0.045701916    0.052357073  
    154000   2296.7846      774.49904     -37675.56       1484.1167     -36191.444      83715.132      13.881473     -36150.975     -37675.56       0.04612917     0.047918059    0.06868976   
    154500   2280.9379     -8013.3586     -37690.662      1473.877      -36216.785      83932.451      13.845531     -36636.577     -37690.662      0.045846953    0.049221704    0.047392942  
    155000   2269.6871      6237.4711     -37713.418      1466.607      -36246.811      83471.439      13.922        -35921.846     -37713.418      0.047905179    0.04640273     0.055994549  
    155500   2332.1831     -2578.781      -37699.066      1506.9901     -36192.076      83765.392      13.873144     -36326.9       -37699.066      0.048483358    0.048327026    0.05791882   
    156000   2306.8714     -4737.2131     -37676.5        1490.6344     -36185.866      83925.275      13.846715     -36434.011     -37676.5        0.046129541    0.046478483    0.053871017  
    156500   2309.1329      3300.5742     -37708.155      1492.0958     -36216.059      83562.309      13.90686      -36043.916     -37708.155      0.045653833    0.047038509    0.057452137  
    157000   2313.2761      2667.0761     -37688.386      1494.773      -36193.613      83650.902      13.892132     -36054.363     -37688.386      0.043459589    0.047078286    0.054780071  
    157500   2304.449      -5619.5476     -37681.02       1489.0692     -36191.95       83929.61       13.846        -36486.329     -37681.02       0.048517037    0.047412615    0.05984276   
    158000   2320.6953      6235.8785     -37699.753      1499.5671     -36200.186      83507.109      13.916053     -35875.165     -37699.753      0.049201626    0.046336589    0.051038019  
    158500   2312.9603      3409.2608     -37686.9        1494.5689     -36192.331      83662.162      13.890262     -36014.306     -37686.9        0.044890158    0.048544841    0.064493666  
    159000   2316.6427     -5654.2106     -37678.99       1496.9484     -36182.041      83937.816      13.844646     -36478.265     -37678.99       0.047751526    0.050548719    0.050205714  
    159500   2321.4371      1259.2087     -37666.937      1500.0464     -36166.891      83737.215      13.877813     -36101.078     -37666.937      0.044699046    0.048987064    0.0604356    
    160000   2278.7744      3449.4433     -37686.858      1472.479      -36214.379      83630.69       13.89549      -36034.324     -37686.858      0.048304448    0.045919813    0.0542953    
    160500   2315.693      -364.0353      -37676.794      1496.3348     -36180.459      83722.716      13.880216     -36199.482     -37676.794      0.050192864    0.04543573     0.051615556  
    161000   2346.8932     -6247.4277     -37640.561      1516.4954     -36124.065      83964.218      13.840293     -36451.47      -37640.561      0.046086126    0.049038665    0.073772221  
    161500   2350.3577     -589.41687     -37678.314      1518.7341     -36159.58       83776.568      13.871294     -36190.4       -37678.314      0.047787491    0.044804266    0.045324895  
    162000   2305.0013      5617.6373     -37687.531      1489.4261     -36198.105      83536.359      13.911181     -35905.205     -37687.531      0.047662925    0.046787582    0.066620886  
    162500   2308.427      -526.11285     -37676.673      1491.6397     -36185.034      83772.102      13.872033     -36212.542     -37676.673      0.048702633    0.044945028    0.058681498  
    163000   2307.7835     -717.54672     -37666.642      1491.2238     -36175.418      83783.93       13.870075     -36212.941     -37666.642      0.051295363    0.047982331    0.05282728   
    163500   2346.3518      4170.0627     -37672.68       1516.1456     -36156.534      83660.518      13.890535     -35938.787     -37672.68       0.043781623    0.046080159    0.070510213  
    164000   2333.0528     -5222.2393     -37692.713      1507.5521     -36185.161      83908.247      13.849525     -36458.657     -37692.713      0.046210877    0.05038851     0.045217325  
    164500   2284.8029     -518.41449     -37674.408      1476.3744     -36198.033      83757.551      13.874443     -36225.135     -37674.408      0.046131396    0.04617521     0.061241178  
    165000   2317.5137      4634.7762     -37648.064      1497.5112     -36150.553      83662.338      13.890233     -35908.534     -37648.064      0.050024011    0.048717433    0.063091898  
    165500   2340.1507      2782.5418     -37667.817      1512.1386     -36155.679      83687.216      13.886104     -36010.337     -37667.817      0.04959338     0.045933292    0.054818415  
    166000   2322.8102     -6129.3783     -37644.808      1500.9337     -36143.875      84006.576      13.833314     -36465.255     -37644.808      0.047409108    0.045867611    0.065405428  
    166500   2338.5987      1962.5095     -37678.509      1511.1357     -36167.373      83668.715      13.889174     -36064.887     -37678.509      0.045420277    0.048974142    0.061637285  
    167000   2345.0717      4545.354      -37686.666      1515.3184     -36171.348      83577.45       13.904341     -35934.24      -37686.666      0.046357568    0.048156831    0.051507275  
    167500   2361.1062     -3012.4758     -37666.147      1525.6794     -36140.467      83873.096      13.855329     -36298.169     -37666.147      0.048543494    0.047730516    0.063488926  
    168000   2351.0548     -154.61946     -37662.5        1519.1845     -36143.316      83843.759      13.860177     -36151.407     -37662.5        0.053866992    0.047698214    0.064870213  
    168500   2320.8869      2742.8646     -37667.882      1499.6909     -36168.191      83717.184      13.881133     -36024.871     -37667.882      0.045975222    0.044462448    0.067131401  
    169000   2374.0906      1037.9078     -37614.946      1534.0696     -36080.877      83839.117      13.860945     -36026.565     -37614.946      0.046995724    0.044762892    0.049599696  
    169500   2338.363       1766.6432     -37657.654      1510.9834     -36146.67       83715.931      13.881341     -36054.361     -37657.654      0.045098592    0.048017803    0.071718096  
    170000   2318.4051     -1132.3657     -37684.48       1498.0872     -36186.393      83770.081      13.872368     -36245.599     -37684.48       0.045711538    0.046697445    0.054847276  
    170500   2310.3895      1347.4753     -37687.732      1492.9077     -36194.824      83702.774      13.883523     -36124.428     -37687.732      0.049386325    0.048671388    0.050861769  
    171000   2327.8598      2290.5988     -37648.322      1504.1966     -36144.126      83706.777      13.882859     -36024.452     -37648.322      0.047989684    0.045595645    0.060175944  
    171500   2332.6253     -968.57724     -37647.85       1507.2759     -36140.575      83862.25       13.857121     -36191.272     -37647.85       0.048124345    0.046974281    0.056343381  
    172000   2304.0999      3339.1797     -37689.571      1488.8436     -36200.727      83627.931      13.895948     -36026.434     -37689.571      0.044844933    0.050360334    0.056691809  
    172500   2346.1141      406.58428     -37656.577      1515.992      -36140.585      83765.774      13.873081     -36119.328     -37656.577      0.048906319    0.047492971    0.052541319  
    173000   2371.6699     -2054.3318     -37633.622      1532.5054     -36101.116      83896.763      13.851421     -36208.69      -37633.622      0.051953816    0.04824528     0.063756336  
    173500   2339.9342     -949.33376     -37645.283      1511.9987     -36133.284      83826.611      13.863013     -36182.954     -37645.283      0.049526787    0.04649763     0.064425635  
    174000   2327.034       6960.3579     -37663.662      1503.6629     -36159.999      83533.75       13.911615     -35797.102     -37663.662      0.043223855    0.047207044    0.048994773  
    174500   2346.9433     -1553.7152     -37653.864      1516.5278     -36137.336      83861.335      13.857272     -36218.661     -37653.864      0.047954598    0.050914676    0.074725505  
    175000   2359.9071     -9033.3016     -37635.338      1524.9046     -36110.433      84111.918      13.81599      -36584.668     -37635.338      0.047912253    0.050914458    0.06431301   
    175500   2358.4298      6042.703      -37675.141      1523.95       -36151.191      83556.6        13.907811     -35836.052     -37675.141      0.050675341    0.045916915    0.051328218  
    176000   2314.3288      3703.1402     -37670.487      1495.4532     -36175.033      83644.494      13.893196     -35981.704     -37670.487      0.049794493    0.046461718    0.071237149  
    176500   2323.0209     -3431.3816     -37661.981      1501.0698     -36160.911      83878.355      13.854461     -36340.553     -37661.981      0.045465416    0.046071035    0.052245409  
    177000   2370.7416      417.22771     -37647.508      1531.9055     -36115.602      83756.976      13.874538     -36093.791     -37647.508      0.044522001    0.050279476    0.06313143   
    177500   2401.2599      1047.1043     -37631.664      1551.6256     -36080.039      83799.21       13.867546     -36025.272     -37631.664      0.047669233    0.048878153    0.070929688  
    178000   2313.6176     -1808.2351     -37643.131      1494.9937     -36148.137      83829.776      13.862489     -36242.748     -37643.131      0.052175782    0.048342598    0.055859018  
    178500   2362.4732     -1128.8791     -37682.747      1526.5628     -36156.184      83790.494      13.868988     -36215.222     -37682.747      0.049001974    0.045150308    0.074232311  
    179000   2362.4519     -1565.749      -37641.204      1526.549      -36114.655      83854.546      13.858394     -36196.603     -37641.204      0.046754299    0.052529232    0.049998911  
    179500   2375.1673     -1102.7159     -37623.206      1534.7653     -36088.441      83868.067      13.85616      -36146.164     -37623.206      0.047577305    0.04783913     0.062336269  
    180000   2330.6532      3077.6803     -37634.287      1506.0016     -36128.286      83718.757      13.880872     -35967.467     -37634.287      0.048469279    0.0512083      0.071567672  
    180500   2339.3671      187.86762     -37646.11       1511.6323     -36134.478      83794.922      13.868255     -36124.652     -37646.11       0.050557588    0.048356296    0.051199522  
    181000   2342.84        393.04071     -37628.798      1513.8764     -36114.921      83841.911      13.860483     -36094.353     -37628.798      0.052860727    0.046446077    0.075283242  
    181500   2316.5794      177.53425     -37651.322      1496.9075     -36154.414      83745.649      13.876415     -36145.135     -37651.322      0.046952497    0.048933805    0.065622488  
    182000   2389.7843      305.58971     -37671.804      1544.2104     -36127.594      83775.716      13.871435     -36111.615     -37671.804      0.044849007    0.045455264    0.057257277  
    182500   2385.1591     -2504.6994     -37645.443      1541.2218     -36104.221      83895.879      13.851567     -36235.377     -37645.443      0.046019344    0.048111018    0.094863762  
    183000   2338.6179     -1600.8839     -37642.664      1511.1482     -36131.516      83847.896      13.859493     -36215.296     -37642.664      0.051857455    0.050118314    0.050592329  
    183500   2364.4213      1109.803      -37675.666      1527.8216     -36147.845      83704.114      13.883301     -36089.864     -37675.666      0.05123234     0.048006232    0.069121219  
    184000   2386.4134      498.92047     -37655.404      1542.0322     -36113.372      83799.283      13.867534     -36087.277     -37655.404      0.046273945    0.045318775    0.065854361  
    184500   2387.3562     -2327.6789     -37610.86       1542.6415     -36068.219      83954.837      13.841839     -36190.19      -37610.86       0.045671057    0.049393919    0.062557114  
    185000   2337.0925      1780.0333     -37655.455      1510.1625     -36145.292      83744.923      13.876535     -36052.251     -37655.455      0.048008028    0.047444569    0.065632726  
    185500   2359.9596      7479.8579     -37648.086      1524.9385     -36123.148      83639.838      13.89397      -35732.67      -37648.086      0.050816003    0.049122025    0.067554454  
    186000   2384.5157     -4511.0989     -37635.254      1540.806      -36094.448      83945.294      13.843413     -36330.805     -37635.254      0.054978879    0.049822801    0.048983831  
    186500   2333.5091     -5569.7362     -37688.117      1507.847      -36180.27       83873.856      13.855204     -36471.846     -37688.117      0.048187848    0.046151082    0.070846046  
    187000   2396.9145      2580.4274     -37630.024      1548.8178     -36081.206      83717.7        13.881048     -35946.373     -37630.024      0.044452261    0.046018907    0.057025149  
    187500   2372.3384     -4413.5947     -37622.201      1532.9374     -36089.264      84003.241      13.833863     -36320.672     -37622.201      0.048169921    0.049766122    0.068014924  
    188000   2375.6837     -977.15107     -37648.038      1535.099      -36112.939      83827.385      13.862885     -36164.064     -37648.038      0.046142766    0.047894774    0.064082559  
    188500   2429.2459      6678.3861     -37628.241      1569.7094     -36058.531      83601.187      13.900393     -35710.055     -37628.241      0.051163878    0.050204288    0.067655184  
    189000   2355.5417     -4414.8405     -37591.035      1522.0838     -36068.951      84063.021      13.824026     -36300.589     -37591.035      0.049005709    0.049179007    0.069481351  
    189500   2357.7006     -2364.9118     -37637.576      1523.4789     -36114.097      83881.5        13.853941     -36237.912     -37637.576      0.04754166     0.046923848    0.061942146  
    190000   2389.453       3378.5704     -37673.013      1543.9963     -36129.017      83626.057      13.896259     -35952.671     -37673.013      0.047583624    0.047257538    0.060217338  
    190500   2335.6556     -638.46479     -37619.141      1509.234      -36109.907      83875.619      13.854913     -36143.331     -37619.141      0.048233852    0.048787113    0.069526057  
    191000   2397.8867      2644.2978     -37629.896      1549.446      -36080.45       83768.846      13.872572     -35942.194     -37629.896      0.048154353    0.046979884    0.061015047  
    191500   2411.9351     -5023.1851     -37615.019      1558.5236     -36056.495      83984.944      13.836877     -36319.807     -37615.019      0.047498771    0.052806871    0.054809044  
    192000   2359.2961     -583.02044     -37606.816      1524.5098     -36082.306      83893.181      13.852012     -36112.834     -37606.816      0.04939241     0.048269155    0.063207869  
    192500   2375.7497      1061.4147     -37640.037      1535.1416     -36104.895      83781.492      13.870478     -36049.391     -37640.037      0.047015756    0.045878253    0.066158321  
    193000   2433.1708     -1496.816      -37628.058      1572.2455     -36055.812      83909.044      13.849394     -36134.203     -37628.058      0.047885475    0.051478852    0.059313259  
    193500   2375.2324     -1271.0674     -37605.038      1534.8074     -36070.23       83917.658      13.847972     -36136.805     -37605.038      0.050527448    0.047615273    0.060223406  
    194000   2419.1169      4580.2524     -37647.996      1563.1643     -36084.832      83687.9        13.88599      -35845.587     -37647.996      0.046697251    0.049676375    0.090464568  
    194500   2361.9204      1704.5323     -37649.386      1526.2056     -36123.181      83767.758      13.872752     -36034.062     -37649.386      0.045851659    0.048323197    0.047571656  
    195000   2358.5177      37.957182     -37616.718      1524.0068     -36092.712      83861.226      13.857291     -36090.725     -37616.718      0.046983587    0.048060977    0.059953692  
    195500   2394.7402      157.00762     -37606.204      1547.4128     -36058.791      83868.047      13.856164     -36050.573     -37606.204      0.047721669    0.048853984    0.076384472  
    196000   2385.2483     -2938.9233     -37632.249      1541.2794     -36090.969      83948.173      13.842938     -36244.958     -37632.249      0.049560749    0.050988289    0.048949172  
    196500   2391.5715      5782.7131     -37587.365      1545.3653     -36041.999      83759.979      13.874041     -35739.686     -37587.365      0.048548418    0.048578618    0.065345913  
    197000   2400.68        150.4471      -37635.367      1551.2509     -36084.117      83849.599      13.859212     -36076.243     -37635.367      0.04699498     0.050234549    0.080668353  
    197500   2366.8525     -4192.1723     -37636.037      1529.3925     -36106.645      83969.66       13.839396     -36326.355     -37636.037      0.047727981    0.047739815    0.051760116  
    198000   2423.3219      913.67106     -37585.441      1565.8815     -36019.56       83883.317      13.853641     -35971.724     -37585.441      0.048893942    0.050376347    0.070890912  
    198500   2402.7355      4413.6095     -37620.585      1552.5791     -36068.006      83749.477      13.875781     -35837.296     -37620.585      0.050425334    0.047070258    0.057960676  
    199000   2391.1767     -2640.2236     -37630.573      1545.1102     -36085.463      83934.722      13.845157     -36223.779     -37630.573      0.047228336    0.051908792    0.061037811  
    199500   2404.5825      1257.6812     -37597.541      1553.7726     -36043.768      83863.737      13.856876     -35977.937     -37597.541      0.04857883     0.050023361    0.056250566  
[...]
   2952000   5937.8513      2382.2541     -31213.633      3836.8701     -27376.763      101161.06      11.487517     -27226.348     -31213.633      3442.9615      8125.1059      3510.7106    
   2952500   5879.3254     -4273.6149     -31129.594      3799.0523     -27330.541      102160.83      11.375097     -27603.043     -31129.594      3511.168       8199.7106      3485.6003    
   2953000   6036.4006     -427.17029     -31229.167      3900.5498     -27328.617      101617.09      11.435963     -27355.71      -31229.167      3568.8481      8167.8594      3412.0328    
   2953500   6013.9036      2744.1281     -31266.327      3886.0129     -27380.315      100963.69      11.509974     -27207.389     -31266.327      3548.5281      8105.5938      3416.1261    
   2954000   6051.0592     -5078.414      -31181.12       3910.0218     -27271.098      101945.45      11.39913      -27594.234     -31181.12       3526.2112      8111.656       3511.1326    
   2954500   5916.5406      4350.1201     -31206.226      3823.0997     -27383.126      101717.39      11.424688     -27106.95      -31206.226      3478.1397      8045.9681      3580.6622    
   2955000   5987.4562      3325.1848     -31242.346      3868.9234     -27373.423      101220.32      11.480791     -27163.349     -31242.346      3423.9531      7991.6011      3626.4748    
   2955500   5981.1448     -3405.4715     -31174.902      3864.8451     -27310.057      101861.55      11.408518     -27526.567     -31174.902      3402.7955      8008.9424      3690.7556    
   2956000   5844.3175     -1606.068      -31135.434      3776.4312     -27359.003      101860.86      11.408596     -27461.111     -31135.434      3399.2636      8044.206       3683.2918    
   2956500   5965.4622     -2553.3542     -31206.865      3854.7115     -27352.153      101709.79      11.425541     -27514.246     -31206.865      3394.8832      8085.9129      3657.4482    
   2957000   6140.5525     -2698.9553     -31176.49       3967.8498     -27208.64       101820.03      11.413171     -27380.162     -31176.49       3430.6144      8142.7171      3605.757     
   2957500   6026.4521      3977.7923     -31217.141      3894.1214     -27323.02       101426.82      11.457417     -27071.203     -31217.141      3513.5983      8100.8524      3510.5489    
   2958000   6115.0601     -765.04192     -31277.888      3951.3773     -27326.51       101287.78      11.473145     -27374.876     -31277.888      3545.4434      8099.2278      3473.9881    
   2958500   5968.6288      641.50263     -31292.968      3856.7576     -27436.211      101121.46      11.492016     -27395.722     -31292.968      3515.7353      8126.2726      3486.6815    
   2959000   5948.1187     -2236.036      -31037.249      3843.5046     -27193.745      102400.61      11.348462     -27336.657     -31037.249      3492.3718      8295.9706      3530.7379    
   2959500   6084.7156      6115.5801     -31277.158      3931.7696     -27345.389      100757.2       11.533561     -26960.794     -31277.158      3434.9086      8302.792       3474.9359    
   2960000   6024.6644      5921.5606     -31137.198      3892.9662     -27244.232      101475.29      11.451944     -26869.185     -31137.198      3447.7686      8450.0116      3452.3635    
   2960500   5955.8737     -5904.052      -31100.695      3848.5156     -27252.179      102321.63      11.357221     -27629.237     -31100.695      3486.6898      8568.1152      3430.7916    
   2961000   5981.2083      1019.2901     -31187.138      3864.8861     -27322.252      101444.81      11.455385     -27257.714     -31187.138      3420.0549      8652.1109      3417.5449    
   2961500   5871.2928      3089.0463     -31206.072      3793.8619     -27412.21       100888.41      11.518562     -27217.694     -31206.072      3369.2086      8728.9524      3408.858     
   2962000   5911.0949     -855.73385     -31139.25       3819.5809     -27319.669      101423.4       11.457804     -27373.84      -31139.25       3359.1936      8880.7624      3404.1933    
   2962500   6017.9664     -5669.5395     -31128.409      3888.6381     -27239.771      102350.19      11.354052     -27601.952     -31128.409      3361.6558      9117.9266      3377.728     
   2963000   5969.224      -637.50134     -31164.392      3857.1422     -27307.249      101959.74      11.397532     -27347.819     -31164.392      3357.7521      9165.6651      3341.5775    
   2963500   6007.5358      4644.762      -31269.311      3881.8982     -27387.412      100885.26      11.518922     -27094.943     -31269.311      3327.3062      9239.8188      3277.079     
   2964000   6073.9801     -5611.6163     -31206.209      3924.8326     -27281.377      101932.75      11.40055      -27638.396     -31206.209      3357.8         9319.5745      3286.6003    
   2964500   6012.4072     -486.70821     -31217.102      3885.046      -27332.056      101098.49      11.494626     -27362.768     -31217.102      3348.7204      9204.6937      3278.4373    
   2965000   6004.8401     -544.36773     -31167.385      3880.1564     -27287.229      101340.23      11.467207     -27321.661     -31167.385      3307.3506      9209.4374      3335.0297    
   2965500   6071.8878      4081.3937     -31323.984      3923.4806     -27400.504      100628.57      11.548305     -27144.162     -31323.984      3259.6816      9209.2546      3339.3382    
   2966000   6176.0061     -2143.5918     -31141.553      3990.7589     -27150.794      101988.77      11.394287     -27287.247     -31141.553      3256.9088      9438.5883      3359.4968    
   2966500   6066.7615      5797.7489     -31275.633      3920.1682     -27355.465      100748.76      11.534528     -26990.888     -31275.633      3208.6858      9489.6405      3313.2471    
   2967000   6005.3504     -1220.9605     -31223.864      3880.4861     -27343.377      101433.16      11.456701     -27420.676     -31223.864      3229.7205      9555.6554      3320.2508    
   2967500   5935.4882      841.59113     -31146.732      3835.3431     -27311.389      101868.79      11.407707     -27257.879     -31146.732      3215.8471      9485.0913      3394.8904    
   2968000   5873.542       7073.6958     -31070.5        3795.3153     -27275.185      101360.19      11.464948     -26827.674     -31070.5        3167.0208      9437.1635      3438.0762    
   2968500   5980.6887      2076.6827     -31197.518      3864.5504     -27332.968      101316.69      11.469871     -27201.645     -31197.518      3148.901       9556.6157      3423.1834    
   2969000   5984.5793      779.43797     -31294.528      3867.0644     -27427.463      100896.33      11.517658     -27378.378     -31294.528      3131.7292      9658.6953      3386.4306    
   2969500   6000.6544     -5751.3699     -31199.804      3877.4517     -27322.352      102021.71      11.390608     -27688.582     -31199.804      3180.6637      9677.764       3409.2371    
   2970000   6001.3422     -7803.2287     -31251.765      3877.8961     -27373.869      101720.79      11.424306     -27869.289     -31251.765      3184.9644      9522.6605      3445.7184    
   2970500   5966.8534     -3166.418      -31268.149      3855.6104     -27412.538      101211.5       11.481792     -27612.565     -31268.149      3181.6522      9418.754       3455.5547    
   2971000   5986.9607     -4580.7673     -31088.159      3868.6031     -27219.555      102275.36      11.362359     -27511.97      -31088.159      3248.3941      9326.5494      3498.9973    
   2971500   5918.5704      6297.6441     -31259.484      3824.4113     -27435.073      100704.65      11.53958      -27039.235     -31259.484      3211.9992      9217.2159      3474.7604    
   2972000   6072.9853     -2258.6969     -31149.367      3924.1898     -27225.177      101621.13      11.43551      -27368.439     -31149.367      3263.5581      9097.2954      3532.9789    
   2972500   6016.508      -4066.9879     -31223.073      3887.6958     -27335.377      101444.45      11.455425     -27592.885     -31223.073      3275.4953      8982.7289      3560.8923    
   2973000   5999.3375      2191.1499     -31285.385      3876.6007     -27408.785      100690.9       11.541156     -27271.079     -31285.385      3219.4138      8975.2206      3578.5159    
   2973500   5975.178       1468.5446     -31329.478      3860.9895     -27468.488      100916.51      11.515354     -27375.989     -31329.478      3175.7746      9024.8623      3627.2825    
   2974000   5885.1772     -56.254206     -31291.97       3802.8336     -27489.136      100995.29      11.506372     -27492.682     -31291.97       3167.7652      9018.9006      3654.5474    
   2974500   6150.8352      394.57322     -31207.303      3974.4942     -27232.809      101625.45      11.435023     -27207.781     -31207.303      3181.5852      8929.527       3733.4855    
   2975000   6060.3858      4283.9792     -31232.543      3916.0484     -27316.494      101068.36      11.498053     -27046.253     -31232.543      3173.282       8727.6857      3794.5335    
   2975500   5943.6667      893.9024      -31133.333      3840.6278     -27292.705      101915.69      11.402458     -27235.843     -31133.333      3199.2972      8671.9405      3860.5006    
   2976000   6023.0738     -4316.2229     -31260.56       3891.9384     -27368.621      101819.5       11.41323      -27642.92      -31260.56       3211.8644      8666.0516      3845.8404    
   2976500   5919.1257     -823.40572     -31352.317      3824.7701     -27527.547      100690.33      11.541221     -27579.295     -31352.317      3214.6548      8497.2811      3837.4158    
   2977000   5983.6659     -154.88634     -31168.259      3866.4741     -27301.784      101479.09      11.451516     -27311.595     -31168.259      3237.4812      8373.245       3936.8913    
   2977500   6008.932       3607.1985     -31274.798      3882.8004     -27391.998      100965.87      11.509725     -27164.68      -31274.798      3218.512       8244.49        3989.4642    
   2978000   6060.162       2593.886      -31155.302      3915.9038     -27239.398      101840.57      11.410869     -27074.521     -31155.302      3233.2119      8261.6072      4034.4623    
   2978500   5971.8735     -1781.805      -31214.499      3858.8543     -27355.644      101657.33      11.431437     -27468.699     -31214.499      3229.3309      8252.6315      4030.2953    
   2979000   5867.9433     -402.61527     -31249.549      3791.6975     -27457.852      101308.04      11.47085      -27483.31      -31249.549      3179.2958      8186.5498      4109.4737    
   2979500   6058.5062     -4650.3244     -31284.028      3914.8338     -27369.194      101649.81      11.432283     -27664.233     -31284.028      3170.9458      8162.7632      4164.8514    
   2980000   5903.8723     -6660.8138     -31102.594      3814.9138     -27287.68       102640.77      11.321909     -27714.394     -31102.594      3224.9192      8182.4597      4174.5687    
   2980500   6053.2693     -214.41657     -31240.164      3911.4499     -27328.714      101239         11.478673     -27342.262     -31240.164      3211.5881      8001.381       4178.3455    
   2981000   6034.9634      6706.7215     -31258.995      3899.6212     -27359.374      100714.22      11.538484     -26937.784     -31258.995      3196.2785      7944.2804      4185.6931    
   2981500   5987.4226     -692.23943     -31085.516      3868.9016     -27216.614      102068.8       11.385354     -27260.714     -31085.516      3226.0016      7973.5583      4253.231     
   2982000   6032.8074      7519.9737     -31187.183      3898.228      -27288.955      100963.12      11.510038     -26815.075     -31187.183      3209.7976      7767.9578      4299.9908    
   2982500   5973.4074      613.59053     -31147.924      3859.8454     -27288.078      101948.95      11.398738     -27249.035     -31147.924      3226.2356      7833.0373      4321.7513    
   2983000   5952.6648     -418.83963     -31332.785      3846.4421     -27486.343      100956.41      11.510804     -27512.735     -31332.785      3181.8874      7840.4564      4296.0389    
   2983500   5978.9184     -4569.3034     -31365.069      3863.4065     -27501.663      101004.88      11.505279     -27789.722     -31365.069      3182.6207      7928.357       4256.4521    
   2984000   5972.6266     -3081.2615     -31176.751      3859.3409     -27317.411      101660.79      11.431048     -27512.922     -31176.751      3184.0178      8064.332       4243.519     
   2984500   5862.1264      572.04239     -31235.414      3787.9388     -27447.475      100914.26      11.515611     -27411.445     -31235.414      3218.0701      8043.921       4147.1984    
   2985000   5992.3257     -2337.218      -31204.489      3872.0699     -27332.42       101561.49      11.442224     -27480.575     -31204.489      3256.9321      7997.0162      4185.4783    
   2985500   5949.7709     -542.50307     -31144.005      3844.5722     -27299.433      102266.38      11.363357     -27334.06      -31144.005      3248.8044      8046.36        4234.3128    
   2986000   5968.3616      5487.0777     -31293.451      3856.585      -27436.866      100952.93      11.5112       -27091.126     -31293.451      3180.3794      8100.3889      4185.1629    
   2986500   6060.7461      976.88216     -31216.588      3916.2812     -27300.307      101273.71      11.474738     -27238.558     -31216.588      3206.3259      8185.9852      4136.8442    
   2987000   6010.2581      597.92161     -31178.09       3883.6573     -27294.433      101157.74      11.487894     -27256.681     -31178.09       3178.5292      8208.4464      4153.9022    
   2987500   6081.0283     -1366.9752     -31210.145      3929.3869     -27280.758      101738.88      11.422274     -27367.562     -31210.145      3217.0819      8093.9322      4213.934     
   2988000   6028.5614      5541.1358     -31201.374      3895.4844     -27305.89       101170.14      11.486486     -26955.992     -31201.374      3219.8673      7978.1247      4234.3593    
   2988500   6080.4625     -3855.1773     -31164.81       3929.0213     -27235.789      102099.78      11.381899     -27481.462     -31164.81       3226.7918      8020.4098      4283.7793    
   2989000   5942.2743     -963.3982      -31197.617      3839.7281     -27357.889      101598.57      11.438048     -27418.981     -31197.617      3240.8477      7932.6921      4269.1717    
   2989500   5979.0769      2924.0782     -31266.473      3863.5089     -27402.965      101000.29      11.505803     -27218.632     -31266.473      3239.8809      7825.7137      4281.103     
   2990000   5948.9718     -8624.0815     -31219.527      3844.0558     -27375.471      102064.78      11.385802     -27924.858     -31219.527      3302.5158      7765.4452      4326.6531    
   2990500   5893.9265      1223.2354     -31173.859      3808.4871     -27365.372      101717.95      11.424624     -27287.712     -31173.859      3308.6924      7643.9722      4356.9257    
   2991000   6161.7052     -176.00771     -31163.825      3981.5181     -27182.307      101924.63      11.401458     -27193.504     -31163.825      3301.668       7644.63        4391.3238    
   2991500   5992.5088      3785.4974     -31196.961      3872.1882     -27324.772      101261.32      11.476143     -27085.52      -31196.961      3292.0347      7569.8267      4397.0858    
   2992000   6000.6753      3138.6695     -31230.423      3877.4652     -27352.957      101191.74      11.484034     -27154.722     -31230.423      3273.4681      7522.1403      4449.9503    
   2992500   5981.4625      3181.3466     -31142.757      3865.0504     -27277.706      101616.47      11.436034     -27075.932     -31142.757      3204.1136      7577.125       4564.3043    
   2993000   6037.4781     -916.18947     -31233.504      3901.246      -27332.258      101517.61      11.44717      -27390.31      -31233.504      3124.6942      7663.7904      4629.1323    
   2993500   6039.0764      145.37103     -31201.837      3902.2788     -27299.558      101430.71      11.456978     -27290.355     -31201.837      3119.8091      7595.6275      4683.6627    
   2994000   5996.8954      5091.6058     -31181.293      3875.0227     -27306.271      101211.17      11.481829     -26984.629     -31181.293      3135.3788      7518.2287      4704.3158    
   2994500   6093.5257      3026.0541     -31200.202      3937.4624     -27262.739      100977.29      11.508423     -27072.022     -31200.202      3164.7066      7517.8561      4643.6586    
   2995000   5996.5347     -4474.842      -31170.17       3874.7896     -27295.381      101969.18      11.396476     -27580.178     -31170.17       3225.0983      7563.7263      4624.0059    
   2995500   5950.7249      800.24139     -31283.514      3845.1886     -27438.325      100780.34      11.530913     -27387.988     -31283.514      3224.9294      7558.2901      4521.4626    
   2996000   5968.2932     -5674.2928     -31214.656      3856.5407     -27358.115      102077.71      11.38436      -27719.635     -31214.656      3272.285       7679.4579      4505.3327    
   2996500   6050.7057     -3115.238      -31211.408      3909.7934     -27301.615      101195.96      11.483555     -27498.378     -31211.408      3283.3005      7731.3507      4389.017     
   2997000   6115.6155     -738.55022     -31278.6        3951.7362     -27326.864      101216.46      11.481229     -27373.521     -31278.6        3260.8342      7785.5834      4399.4235    
   2997500   6064.2263      3013.5974     -31256.68       3918.53       -27338.15       101016.55      11.503951     -27148.144     -31256.68       3245.203       7771.6841      4411.9471    
   2998000   6152.7783     -511.94168     -31338.749      3975.7497     -27363          100895.62      11.517738     -27395.239     -31338.749      3240.8116      7698.8929      4449.7548    
   2998500   6015.3723     -2497.6412     -31213.568      3886.9619     -27326.606      101559.59      11.442439     -27484.928     -31213.568      3231.1318      7763.2148      4490.0377    
   2999000   6011.0134     -6677.3746     -31058.724      3884.1453     -27174.579      102825.01      11.301621     -27603.121     -31058.724      3286.1193      7834.6447      4490.1955    
   2999500   5872.4431      6405.3794     -31223.119      3794.6052     -27428.514      100758.07      11.533462     -27025.691     -31223.119      3280.4087      7671.9247      4409.8467    
   3000000   6053.0387     -1522.0378     -31171.324      3911.3009     -27260.023      101590.87      11.438916     -27356.533     -31171.324      3305.5871      7680.2125      4445.1001    
Loop time of 624.67 on 40 procs for 1000000 steps with 5000 atoms

Performance: 138.313 ns/day, 0.174 hours/ns, 1600.846 timesteps/s, 8.004 Matom-step/s
95.0% CPU use with 40 MPI tasks x 1 OpenMP threads

MPI task timing breakdown:
Section |  min time  |  avg time  |  max time  |%varavg| %total
---------------------------------------------------------------
Pair    | 354.83     | 358.34     | 364.94     |  11.8 | 57.36
Neigh   | 6.887      | 6.9508     | 7.3708     |   2.9 |  1.11
Comm    | 144.66     | 151.48     | 156        |  20.0 | 24.25
Output  | 0.22972    | 0.29914    | 0.93544    |  19.5 |  0.05
Modify  | 90.955     | 93.689     | 95.883     |  10.2 | 15.00
Other   |            | 13.91      |            |       |  2.23

Nlocal:            125 ave         132 max         118 min
Histogram: 3 1 4 5 4 11 3 5 1 3
Nghost:        1100.62 ave        1114 max        1077 min
Histogram: 1 1 5 1 1 6 5 8 6 6
Neighs:        4910.18 ave        5264 max        4557 min
Histogram: 2 4 3 3 7 9 4 2 4 2

Total # of neighbors = 196407
Ave neighs/atom = 39.2814
Neighbor list builds = 30928
Dangerous builds = 0
	unfix           fholdhigh


# ----- FINAL OUTPUT -----
	write_data      W-Mo_5000K.data
System init for write_data ...



Total wall time: 0:31:08
