LAMMPS data file via write_data, version 2 Aug 2023, timestep = 3000000, units = metal

5000 atoms
2 atom types

2.8558790613327734 28.794120938656626 xlo xhi
-2.578552029710398 34.228552030419635 ylo yhi
-13.642504831813504 92.7675048317769 zlo zhi

Atom Type Labels

1 W
2 Mo

Masses

1 183.85
2 95.94

Atoms # atomic

1045 2 3.894775549119424 -0.020593471183322887 -11.610102115015728 3 -1 0
2239 1 5.139146455798519 2.6029368702428552 -10.629669793167647 3 -2 0
2614 1 3.5119065274366448 7.805854642966146 -10.764357908258576 -1 -2 0
2950 2 8.666732067066455 2.2170942564223397 3.4833403561626533 6 -7 1
3127 1 6.569603460010347 -1.2654658177157636 -12.27595696867892 0 0 0
523 1 6.699881100387698 12.441672587512054 6.65423050884737 0 1 -1
1196 2 5.965991408105569 2.5957272343803544 -13.462439326465017 2 2 -2
1440 2 9.250665373404855 11.599535974987413 -9.77110445582424 4 3 0
2528 2 3.8857654629959466 13.373912880408788 -12.202352385454246 2 -3 0
162 2 5.148530449703036 -2.4569885663729107 -0.21816880970947672 0 -1 -2
3939 2 9.196295172713985 15.416014587278514 0.025133743365433503 5 -5 0
2729 2 6.465572056743809 4.788911017282734 -12.007251908117777 2 2 1
1971 1 8.843283292950122 12.454360055067825 4.086298391835765 -2 0 1
2965 1 6.2073760449600925 8.793574872392787 -11.630626973674197 4 0 0
2838 2 3.374246404677998 3.3382274788616977 -12.577018864690443 3 1 1
1789 2 6.206761489736252 6.768663506214622 -10.547961009649729 1 -1 0
4106 1 4.429243745337864 15.660245930864736 -13.375086081731414 -2 0 1
4024 2 3.4629907867992884 5.207463757968952 -11.224729442539328 -1 -1 1
3214 2 4.093946141578758 10.963333320304503 -1.8698842573775742 2 3 1
1949 1 5.791295048918525 3.9014734274774385 -7.625855547939664 0 -1 1
974 2 4.909046884754836 -1.1881481590564906 4.672849499709773 -2 2 0
150 2 3.3951274163052236 11.146672665316366 -4.641043372328193 1 1 0
4079 2 6.603032361911414 11.394172090930468 -10.35795291833946 3 -5 1
4417 1 7.198134264491786 5.488120840277849 7.262041735393723 4 -3 0
2485 1 8.814309342665936 10.070310340174574 5.71439155961335 -2 6 0
1187 2 8.151345162364162 13.697931496845683 -11.428943094052222 0 -3 -1
2274 1 6.178328698010846 15.382630954150692 -7.290475662830231 7 -4 1
1046 1 4.385814416388868 10.193658814664866 -10.119315903225774 0 -2 0
2085 2 6.038362278561721 -1.8775615892867146 -4.7743158039419065 -4 -1 1
575 2 4.460130118467285 2.9099725898811206 -1.2668720194247296 -2 0 0
943 2 5.456380168599571 0.9725567125740069 -5.847242755047199 0 0 1
1275 2 5.9481847912008305 15.58498452563271 2.892455167495058 5 2 0
4905 2 3.273020563850301 1.686458422204284 2.0145916659736276 3 3 1
4075 2 5.271128291769932 13.159074894101227 -3.0255612817919815 1 -1 1
3335 2 9.122619821352487 1.2348947362257587 -4.834203936688567 3 1 0
1005 2 7.85574115991917 1.7635962582473477 -11.421499852159734 1 1 1
3080 2 8.788257373078956 7.301124128339959 1.0651926562250438 3 2 1
4373 2 3.865566044217044 4.740007130858089 -5.506147497378196 1 0 1
1469 2 9.124060986559892 12.465345127799928 7.5581216826868385 -1 2 0
214 2 8.098280691166778 14.51961715797069 -4.963349719736637 -5 0 1
502 1 6.86259225625546 3.1333060184656727 -4.871600527995547 4 0 0
1267 2 7.683494991213394 2.0041753171139653 -7.153035165774014 -1 3 0
3866 1 8.396222738969735 8.929963470765587 -10.810068991034862 -1 -4 1
1527 2 3.1520327140671722 8.086613383741872 -7.592105442652306 2 1 0
2641 1 3.7664054141232253 0.12062277805705168 -8.253291352014697 3 0 1
705 2 6.33773807550496 10.335161685161243 -3.6926137420062357 2 3 -1
1124 2 7.388443331368127 15.731828625654526 7.26021142004312 -1 -2 0
443 1 5.169020163890351 6.392888785565253 -7.363781270698078 -4 -4 0
3029 2 3.4893869938110367 4.9920867324188976 -8.533970803476628 0 1 1
4825 1 6.142457223115711 8.716912024186234 -8.395916520493007 3 1 1
4235 2 6.862799792523845 11.16183910987979 -7.558595156332093 2 -9 1
2483 1 4.245397893883224 12.516965965738256 -9.26420363836348 -3 3 0
4467 1 3.942311043797746 7.654309355501329 -13.409117181175626 3 0 1
3827 2 5.017277357460504 13.053487961787535 -6.702490210197584 5 -3 1
1848 1 4.269299628402591 9.987500446248614 -6.885931268217662 1 1 0
1449 2 8.019791109235115 13.146111370285439 -8.191823681066385 -1 2 0
812 1 3.700047419312729 14.997389370045397 -5.442359162772448 0 -1 0
3553 2 9.161836672897948 -2.127314710466955 -4.183327157893222 1 -2 1
1441 2 9.320453272425777 0.1110111412803616 -1.5916164287140653 1 4 0
1914 2 4.0134756639070535 -1.9304728703525096 -2.647360259609929 2 0 1
2949 2 9.104341902744506 8.490775881732091 -1.2873259314229504 -3 -2 0
266 2 6.518323855100444 4.707029670487108 -2.3411380510709403 1 0 0
2486 1 8.131549648890566 2.570606929419797 -1.8333869281287516 -4 -2 1
4397 2 7.124229770152764 1.0473439806124958 -3.7232711819786353 0 0 1
2292 1 5.840570766618693 0.13048233426163058 -1.3987930006575358 0 1 0
2096 1 9.189369632243054 7.583220459554068 6.281600829720116 2 0 0
555 1 7.111934783787682 7.680505492900872 -2.9803490748695083 5 2 1
2719 1 4.268847472984158 4.651609470310139 -2.9137014370314187 4 -1 0
3629 1 4.85442370546068 6.879375340476907 -4.098133036809266 0 0 0
3274 2 5.756300291582571 14.683774001300286 5.852570304502379 2 -2 0
4113 2 7.903540391099801 12.493468013711865 -5.736949227481868 -1 -1 1
4498 1 5.300484775855607 8.172846639317408 -0.7903882388089976 0 0 1
3046 2 7.13520635007174 -1.5942710259193325 -2.5411392565793633 -1 -2 1
2459 2 5.2831297965915995 14.46560647463496 -0.8206193225163947 5 1 0
516 2 6.38919122938039 8.176748931995691 6.556755043150321 1 0 0
2145 1 8.65904096090729 10.695801557868473 -2.385020779028922 0 1 0
4016 2 2.916281912410037 14.576474497057564 5.219722677867715 3 1 -1
3688 2 9.145649340284967 10.061247439847163 0.34446806519632034 -3 -3 0
3611 1 5.7623109607647995 10.676617480322875 -13.250570387499895 3 -3 1
4164 1 7.48457980952199 0.40320804306748137 0.9032019627499999 1 -2 1
3147 1 6.9802924262597985 2.6327992579433968 1.895663224472207 -4 -1 0
1079 1 4.643738962094467 2.511319311672688 -4.36999516034836 -4 -3 1
1508 1 6.63924242188944 0.33269012786381724 3.7230538315393 0 2 0
2301 2 3.8915346842128375 15.586069010405765 -9.020792906257812 1 2 0
1193 2 8.76675844728468 9.109713980557368 3.419436922601669 -3 2 0
152 1 4.279019980489826 3.5507882169440146 2.960926050224444 -4 -2 0
2797 1 7.364173152762567 -2.5199554573972875 3.662817525718708 2 4 1
2186 2 6.633982287578094 8.265218520812125 1.3857818318533504 -5 3 0
1472 2 3.8661198040011016 7.607117628401069 1.7523859240206594 -2 0 -1
79 1 7.934067350863388 5.098534389586768 2.650261656149013 -3 -3 0
4756 2 5.382180897785265 5.431967795454749 0.540944191500099 2 -3 1
3601 1 7.987526547126932 13.31524814919617 -2.749659625854802 -4 2 1
3722 2 6.156327748562383 12.701890560278176 3.7415666089726685 0 -4 1
848 1 5.057692496051326 11.098367238871427 0.7042299940282675 1 1 -1
3290 2 8.597785277601982 -2.0812304781468423 -13.493774971357002 -2 -2 0
3249 2 4.7026928232359415 10.365830785765112 3.02078373824515 1 -1 1
458 1 7.397424606793752 10.74028784315586 1.9966454369730116 3 1 0
51 1 4.121963769999496 13.233938335857948 2.6506423120476974 1 -1 0
1513 2 7.1085978048356395 13.370931589268135 0.689234596266072 4 1 -1
4287 1 3.920260108588256 11.852784981030258 5.194568213898947 -2 0 1
3869 1 8.629951715030852 4.729254589805578 -0.06467915427491988 -2 -3 2
3945 2 2.879896763563043 14.408761682070434 -2.3390842990482152 0 3 1
4965 1 8.62639413151771 10.733304677610564 -12.375209784056572 0 9 1
1047 2 9.138382227161367 0.30388480881601154 5.232680802135992 3 -2 -1
89 1 7.7911361235135645 5.748075427325968 -4.8121602584143375 -1 0 -1
1812 1 6.945931086596399 10.597103991272988 -0.9900800879117 1 -2 1
3820 2 6.679083477689382 -0.16454224720826316 6.420882299244813 5 0 0
3522 1 6.611209707222002 6.977870309505159 4.141897641782844 -1 0 1
4899 2 6.270998038473547 3.9468903462581038 5.248810830718455 4 0 2
3719 2 7.769114586744283 4.052325858301643 -9.200107707677038 0 1 0
1990 2 6.689075838027479 8.283347096913632 -5.89705855389636 0 0 0
3050 1 3.094210118822406 4.359627057448559 5.8614046066286 3 -2 0
4254 1 4.343002083471983 1.4673668289042467 4.152105568678266 0 1 1
2314 2 8.273743898198282 -0.7643276369065066 -6.2251185723601825 0 -5 -1
2671 2 8.492393487486046 5.079797838788591 -6.954366873011383 1 2 -1
3456 1 8.617932160060779 14.75365730627188 2.60330104023825 -2 -1 1
557 1 3.132309489126699 10.588364628137333 -12.932927107132617 5 -1 0
2539 2 3.462784382006574 -2.492398274457372 -5.625219386117363 -2 1 1
3343 1 7.168705457575656 13.11568416243169 -13.592794926207517 0 5 0
2181 1 8.52671715646871 -2.0246653236836494 12.045605125241767 0 5 0
1308 2 9.027092203839189 14.255991663441137 9.366633837349845 -2 1 1
4466 1 9.002831454226396 1.9328276566998612 27.979982621513066 4 -3 0
1656 1 2.9679300256728403 -1.9262982935689297 12.22029051032812 5 -1 1
3247 1 7.727186456190482 6.3861545383673874 27.37026189932662 -3 -2 0
4519 2 4.951545931339391 -2.4151497721714166 20.223025359188995 4 0 0
277 2 5.148177192713652 -1.8427934959553744 7.9885422764876814 1 1 1
306 2 6.898111236968874 4.680622886268901 10.663548124172507 0 0 0
2626 2 4.453828972764435 3.57510980660886 27.81038475654551 0 -2 0
1545 2 6.071405816919707 2.4289303778569202 9.997924189359352 -1 2 1
2811 2 8.834082554345084 -1.7938919595121596 14.749716637537194 -1 -3 0
435 2 4.686468246106625 5.0009291070715065 10.151343405961505 3 1 -1
693 2 6.1646099238429475 7.754015897098517 11.359486720758309 -1 -2 1
1010 2 2.983989575040902 1.9271782134064557 26.039459074356294 -1 -2 -1
1993 1 7.593207544164652 13.118917747351055 11.287977141767037 -1 -2 0
4139 1 7.444831713418583 7.65446453294523 9.096289217228893 3 0 1
4336 2 4.985487556448834 2.35598567665709 11.775168363313181 -2 -2 0
2858 2 5.131346376522988 9.289572311731288 9.753791033133485 -3 3 0
4557 2 4.402002195037813 3.363373140811219 18.189441372946135 3 4 0
817 1 7.58752601183438 10.25366078278517 8.149751972386493 2 -2 0
3487 2 8.995051607708408 7.764625574895378 15.5910010207721 0 -1 -1
2871 2 3.7687531277936137 14.453565785060231 12.894029572615793 -3 -4 1
4941 1 9.064667353246156 2.7385881875897162 9.45928221334514 0 -3 2
213 1 2.8703250434385 -2.189156310112628 18.261839063497916 0 2 -1
59 2 7.601859944913953 10.463303283856767 11.443490305459637 -5 1 1
2268 1 7.8755262057335225 15.808378917498889 27.333214850038587 1 1 1
3560 1 6.517989151246727 13.782897694495528 8.883124500618013 0 2 0
165 1 8.47187877561106 8.965419518507936 24.592676247424073 -1 3 -2
4095 1 8.093023787501604 0.5803888388549234 13.310447796896998 1 0 1
4543 1 5.865046266102255 -0.01877695354884601 12.781227237622527 -2 1 1
160 1 6.472778677451775 0.11647275462066142 15.415177768857252 -4 5 -1
686 2 3.9118375650695576 -0.046209700889847216 14.518369204098242 3 2 0
1841 1 5.133686638016622 10.547021647693997 12.040854873050382 -1 0 0
4817 2 4.488966810381315 5.085825575374515 13.020874108092187 -2 -1 2
2687 2 6.223133675081167 2.639024139542083 14.076470050145005 -5 -1 0
769 1 4.048999480688753 0.5055572613932631 17.496383054092274 5 0 -1
3947 1 7.925208319721315 2.6724986212765236 12.074185702151425 3 -4 0
1240 1 7.624871902474375 4.884266511538949 16.23082400756299 2 1 -1
1058 1 3.409297030352447 -0.42863410156858794 20.681094481123964 1 0 -1
3986 2 6.551199564647947 8.757350654666993 14.094927538317688 2 2 0
2916 1 6.877318211695554 5.425458792942868 14.019862752074566 1 1 0
1091 1 6.798734716689628 7.738002521736073 16.73118708473663 0 1 0
498 1 7.021554905259302 -0.13644128280016776 9.418281650102312 -1 1 0
4747 1 8.317352036721058 12.221345009757618 26.551905104518056 -1 3 0
1884 2 7.439838202258751 9.914678222643973 16.582929765948283 1 -1 0
3812 1 4.7910986899773444 1.1073672952356945 8.080246837014474 2 2 1
4796 2 7.171778461107722 13.066489711406595 16.79898768871571 0 0 1
2481 1 3.8841315568986716 12.166340875423108 18.427149917906853 0 -1 1
4072 2 3.857719186555552 10.712287031992673 8.167292918304195 -1 -1 2
556 2 4.687481364764505 10.299169944938992 16.235068384990583 3 2 0
671 1 6.685076241954432 11.728074136229269 14.473802500890148 4 -3 -1
2783 1 3.1189050838780354 7.229353253318802 20.600075561456975 -1 3 0
4950 2 4.266299210388646 13.678986571718678 7.947157196897649 -3 -4 1
2474 1 5.850136220193994 11.466518921693241 9.621369841436529 2 1 0
4811 2 4.788134507073862 13.670642873778526 15.422759168399526 3 3 1
313 2 3.82269523854924 7.714949267033322 15.444189781757242 0 1 0
2230 2 8.735253048654346 -2.49901152098556 19.40886197722466 2 2 1
1938 1 6.283838114095962 -1.0236724795941876 17.772275546561808 2 1 1
3681 2 5.861793204255431 0.1368268688211005 19.92675103918348 0 2 0
1559 1 7.982087691777887 0.28910674606834563 20.904150236490352 -2 -2 -1
994 1 8.803087291929913 2.3539378291711754 15.330649491130025 1 0 0
32 2 6.407787013925423 2.4643591418768995 19.655649759038802 3 -3 -1
2204 2 8.428733334304134 3.7643058776137757 18.258895351237136 -4 2 0
3398 1 8.964074799192895 0.3802325685439447 17.624545746974718 2 -2 0
4559 2 7.7508498122179486 6.467414636947238 18.488098306527945 1 0 0
1458 1 3.5923366087242528 2.070621821496254 20.815555654008925 2 0 0
1918 1 6.504161870210481 13.821573317087442 27.758855768648118 0 -2 0
3067 2 5.488425949239152 -1.993124457225778 10.835127407656689 4 -3 0
4575 1 5.579214866795867 4.941753275706362 20.06361681704101 2 -1 1
140 1 4.035293421530343 6.437441478001089 17.810115456791465 -1 -3 0
1191 2 5.166449032005069 8.218635981686242 18.92213004616403 -4 4 -1
3700 1 6.732383335685256 7.063533708850432 21.072461609173217 0 -1 1
76 1 3.2771461111838436 9.995731940609772 19.290706105118232 4 2 -1
590 1 5.1607735535870365 12.284442680697408 21.304563374121614 0 -4 0
3858 1 3.9845220644827206 -0.23570659761948187 26.778247700027876 1 3 1
509 1 6.963611472113682 14.187397422643706 19.485480032093108 0 1 1
2688 2 2.9232878389166506 12.81156524002025 28.66378911660553 -1 0 0
874 1 8.522673280364195 6.295587044140207 12.09001991355261 1 -1 0
397 1 7.544873592641598 2.101281542695114 7.712674923412891 3 -2 0
2689 2 4.786551441277301 6.716373759870155 7.912592165515392 2 0 1
4396 1 7.060350570091492 -2.4105676591089877 21.299035988687855 0 2 1
1332 2 7.407141315052853 12.186015240543309 22.14392509823999 2 0 0
3166 1 6.522120802081525 0.5915441330489961 23.34548366140899 1 0 -1
2875 2 3.944517036507803 0.36912708395390004 23.397384674934017 2 5 0
1325 1 4.778254560498285 -1.8527765363225388 22.9575953145632 -2 -4 1
653 2 7.848988657637867 8.908152464862546 19.53302275883125 1 -2 -1
4414 1 7.300658050556785 4.249528091392215 24.10608570737763 0 -1 1
2467 1 5.755610122165908 2.663788920252528 22.346585324860456 2 -3 0
1374 2 5.9128326479085125 12.60126649246302 25.39473792421707 2 2 -1
3963 2 4.14821499640993 -0.1071158585121692 10.153038117095445 0 2 0
4845 1 8.527952374506327 5.282157497877984 20.822828186780264 -1 2 0
2975 1 4.500812549606137 4.76410690807741 22.64115935998045 0 4 0
2211 2 7.578729769592289 9.44366812994236 22.357018536330756 1 -1 0
4912 2 9.046275756244164 14.736598877752126 16.06811537726654 -1 1 1
3001 1 8.297569782327436 13.898603934493401 24.230317347169866 1 3 0
3207 1 4.443707336049361 5.032873878142114 15.567772432525054 0 1 0
4320 2 4.344812855919975 10.099186994053252 24.503180173002058 1 4 1
706 2 4.9811674263640295 9.191577385987438 21.53982498098587 -1 -3 0
2810 2 3.113483477001767 2.2998463928497506 9.527366343530552 -1 -5 0
1305 2 2.9082542131348186 8.391537988809125 8.860559997609773 1 0 -1
1457 1 4.643966028981782 13.609916236542748 23.85723928901671 0 -2 0
990 1 6.526150556769913 11.198371591691808 18.79265245648265 -3 1 0
255 2 2.979917104125331 3.629773621937014 11.357537981936822 -1 -1 0
2609 2 6.886251593012637 6.547220583515019 23.341283972730935 -1 -1 0
560 2 6.575539908961435 14.953849039579918 14.979593890415927 1 0 0
898 1 8.414479254778488 1.2572797392398338 25.029704728436535 -1 4 0
2232 1 5.658550758094487 -0.6965500901552812 25.498082812997573 2 0 -1
1370 2 8.061683913751244 -1.5226595160389178 23.530327608101715 0 4 0
4507 2 3.1874147904234515 12.443002868066438 10.590276553932526 1 1 2
2938 2 4.601477926562115 3.400971107911867 24.989317961366353 3 0 0
4284 1 5.261516466685087 1.2822568555613687 28.298631149159085 2 -1 1
1543 1 7.682837538956398 -1.1741043386804522 28.563094090160476 -3 0 -1
2484 2 7.1491041611431525 3.5587771382626077 26.92821396700245 4 -1 0
4286 2 4.811591736699317 9.016917876201418 27.137085609328985 2 -1 -1
944 2 5.355433222266743 5.860038477674255 25.824567855145013 -2 0 -1
4710 1 5.948217379203529 2.4020041440595428 16.664581924113598 2 -3 1
2604 1 8.451978749475991 9.398004877759098 28.238502327413137 -5 -2 0
2201 2 8.313517215003632 -1.6324256281818765 8.220168231533961 -5 1 1
1745 2 9.163035193207136 11.363845891622638 24.175365198716555 0 -1 1
3051 1 9.073215520592038 7.386164443306223 21.91491179551869 1 -3 0
4683 1 9.205251867771505 5.8838834262829245 9.148660495702632 -3 -1 0
1349 1 9.30298154087534 -0.17418419426087528 10.417321980730843 1 2 0
2835 1 5.10118982509718 -2.497917423234108 15.05654089902638 0 -2 1
2084 2 2.8830014252491907 14.670176813192327 21.284441580623437 0 4 0
4603 2 4.57695198454278 3.86122496309181 7.643110230659644 1 -1 1
910 2 6.320236064267494 -1.8166555412387164 35.17564432288754 3 2 1
3044 2 8.957479036307749 -1.6355804999230699 50.0769455484526 2 1 0
3736 2 7.8724732423456025 6.378874204143958 30.071693204096164 0 -3 -1
1842 2 3.228943698158856 13.100469508562831 35.65744131153996 -3 0 -1
2058 2 9.074865037572936 1.546923438735984 30.196799224133883 0 -1 0
3289 1 8.046803285728021 5.727898063092704 33.341327866596586 -1 2 -1
3546 1 8.779231984437146 2.8665051294519444 38.38884896451381 -1 3 1
834 1 4.115108676237947 10.312268601356966 36.14643580540476 1 -3 0
699 1 8.347690057227922 12.791170965673803 49.541923158252914 -2 -2 0
1862 1 3.509836306202681 1.1021653096143083 32.81069044829929 -1 3 0
4839 2 6.714132632833369 3.4624163595043695 29.33311026873548 3 2 1
2345 1 5.34102822903688 6.628469558152014 31.302484323726212 -1 -1 -1
4356 2 7.693885181569474 15.686897447659618 31.347098255403466 0 -2 0
2339 2 4.622919489509547 14.667614112840933 45.79515061213848 2 -1 0
4267 1 5.5435347591118465 13.670956728302912 30.84037793014565 -1 1 -1
4581 2 6.110526001861777 9.255594178539406 29.948737707241428 3 0 2
634 1 4.8078236538486525 5.212802705508076 29.034044072547637 1 -1 -1
3475 1 8.26493136623954 3.6862232668452553 31.185423765015138 1 1 0
3040 2 4.164867509908667 11.548337812454982 30.77253437005355 -3 -1 0
1625 2 7.117986512396865 13.87979955886673 33.112556291321624 3 -1 0
4434 2 7.420295173401691 13.08494414767883 42.18129989841236 -2 2 0
672 2 8.179907557120153 15.469523997344037 39.96591723774631 1 -3 0
2468 1 6.695699734699049 10.534564771397804 31.975550932086996 0 -2 0
4015 2 5.295030051115178 -2.026695521712101 45.83982267322958 4 -4 0
3391 2 5.04484636399482 0.021122986256722598 36.16935117097564 -5 -1 1
4220 1 7.8334854552361906 7.320127342384589 37.682895264858615 1 0 0
4494 2 7.513912518778596 0.8137555432190693 35.38329699556641 -2 2 1
348 2 5.606630534341875 12.36462295589463 49.811218724680515 0 -3 -1
4043 1 5.409911228485811 7.791674397429599 36.85921793349783 0 -4 0
3102 2 5.790743944392633 3.0376931603340545 36.18363324740848 -2 -1 -1
1665 2 7.1463044487048935 -1.7927488903914208 37.39097557243069 2 4 -1
1783 1 7.773109629025452 9.882634091010114 49.89073046838248 1 3 -1
3282 1 5.88091665061821 12.833467985292113 47.072778239709876 1 -4 0
1096 2 7.192714669412721 8.19965779066981 32.90630914480688 -1 -3 0
2968 2 3.1654465109322856 2.6808022691592006 35.97509491793813 -5 1 -1
4753 2 5.058292262477947 6.077286189176647 48.986242162343686 -5 -1 0
3992 1 5.64566647651291 6.558011173615867 39.41876330823309 -3 -3 0
3367 2 6.324123897427491 1.445011349457375 37.928975445364436 -1 -3 0
3499 1 4.007931598730055 14.205836757288317 49.40170319425997 4 -3 1
584 2 5.022482304042635 9.971936439653245 38.6384577740345 -1 3 0
1923 1 6.026139410516003 6.03666576819395 34.48019602454333 -1 -2 -1
4651 2 4.466399856741843 9.111224857491045 34.10147529889196 2 0 0
1727 1 7.609369571087139 10.926190205784103 34.32221819464599 -3 1 0
3511 1 7.471454410174163 10.29587922226302 37.44550056037497 2 3 0
2444 1 6.594826968554421 6.312861341486851 41.85924554255568 0 0 0
1056 2 7.696153834830523 12.900950624077995 38.71355493342051 0 -2 -1
303 2 5.642309439430777 12.864995855013902 36.64066136800717 2 0 -1
1464 1 5.011140433306599 -1.1955097210487458 29.454254646854544 1 2 0
1213 1 3.027281795079906 -1.7800770186549673 39.892857189945225 -1 1 -1
4410 1 5.20522091241696 -2.351448279978657 32.404956325967994 0 2 0
329 1 3.491018578992403 0.29397684816656433 45.27948097435358 0 1 0
947 1 4.0231415759358224 2.1349655094982163 42.49018008789829 3 0 -1
2020 1 3.329771775404881 9.795062382857711 42.74815715890393 -3 0 0
3311 1 2.877940553048579 15.271942692195221 43.99147044698302 -2 2 0
4200 1 3.813724841002591 2.6094649900580027 38.43598882027651 2 2 0
4375 2 3.9394872520904283 5.1698781197178 37.410524706331906 2 0 1
4343 2 8.747255156271745 6.191439339624839 46.92891676209425 -1 4 0
1373 1 7.318410093812836 10.66705073396464 47.847976230861704 -3 0 0
2981 1 3.7779442615670984 8.006754248583839 47.667933836461735 -1 2 -1
3679 1 6.487688668332607 4.165170191524821 38.178908859721 3 3 1
229 2 5.267960953708975 8.995738782633623 41.12343649959681 -1 0 0
2304 1 6.490595529087898 11.133857536397938 40.493203648296344 1 1 0
2906 2 4.148470564465969 12.219184510824247 41.61639987682458 0 0 0
2693 2 3.101024743399285 4.756169581580698 31.657426462066432 -1 2 0
864 2 6.043815968615976 1.562644018665206 30.435291154791948 -2 1 0
2616 2 3.135527143040643 12.417038085051168 38.54073781020542 3 2 -1
3723 2 5.422102530670999 13.214479429639496 39.32819771409519 1 -1 1
3157 1 3.8452421700665225 2.4759593142510177 30.762759810818558 0 -2 -1
4242 2 3.482789665759756 -1.4940945222030952 34.94763185355862 -3 1 0
2091 1 6.428946467397388 15.100960724194096 48.340208249143295 0 -2 0
3977 1 6.362296388334208 13.099327283016668 44.714008779851696 2 1 0
2692 2 5.244800477477034 -0.37455950658957304 40.92448967243642 0 1 1
3216 2 2.916093108442255 15.62070376528797 37.84860905989816 -3 -1 0
3856 1 6.63051143650213 0.6729811401975172 46.344627257898274 -4 1 0
1100 2 6.2386870587186 0.1745561119428607 43.57271952939867 -3 2 0
4120 2 4.67802172161115 2.3762264385524157 48.16741592232659 5 -1 0
582 1 4.725796437828518 2.8107411834413796 45.32389697036789 1 3 -1
1407 2 7.10583432608901 3.8394045459670325 42.13323510612632 -1 -3 1
2550 1 4.226208118992241 4.729893265947714 43.39789977063191 -1 5 -1
240 1 8.358768425430753 2.0978520617842387 44.02491199990819 0 0 0
758 1 3.851700229133324 6.374874706756783 33.404767855131276 -3 -3 1
673 2 3.8967573312194252 6.979702297465693 41.214417139218085 1 2 -1
2135 1 4.456764566120835 4.53934391475254 40.94255143459295 3 4 -1
3574 2 4.044701759389474 9.159188165610216 45.44556022499997 2 -1 0
4894 2 3.724234037435291 12.232449843969928 44.680871466274375 -1 -1 0
2826 1 8.493015862334445 8.89472558390469 42.52904718573407 3 -2 0
1913 2 3.7330272921389165 10.38363852445139 47.58215972442962 2 -1 0
4976 2 7.048960643169176 10.291130832184114 45.52518748701789 -3 0 0
4194 2 4.995365696947346 14.565284698177962 42.60615390539145 -2 3 0
2440 1 3.149505609327286 7.835733495731564 38.88407550960242 1 0 0
1006 2 5.773017765263454 3.300384797328192 32.95825693096254 0 4 0
3430 2 3.199647107202334 3.989761432170125 34.24767137696648 3 1 0
4472 1 6.739904583247029 5.7996942810240135 44.52517668183921 3 -3 0
2521 2 8.429354399911581 13.629598817589347 46.14359420291747 1 -3 0
3419 2 7.839038190360099 15.053451319466149 35.99972516682614 -3 1 0
620 2 7.577737320888331 -0.600883257924286 39.80053736059874 -3 -2 -1
4005 2 4.243807387433396 14.834161850694652 40.35775696837463 0 0 0
2156 1 5.783663749851051 -1.8868416514500779 48.43651040169124 1 2 0
3011 2 5.928403817838131 1.3689914974949562 49.45540910115171 2 2 0
4822 2 8.219426730541088 5.358003156184097 40.238398626652156 -3 1 1
3227 1 5.062871091498327 12.332615271575879 33.84360760243357 0 -1 0
3952 1 7.820239089013794 -1.6007497204251755 42.02130311458565 2 1 0
3985 2 3.6276979918605967 -1.3752120310503078 42.52764991846412 1 -2 0
4786 2 2.9407730107742336 15.677489623445805 29.99456877341764 -3 -3 1
180 2 4.139425135411707 4.90717827708571 47.6607075064027 2 -2 -1
4853 1 7.85962787973595 6.983402983727027 49.44906343768611 2 -1 2
1877 2 6.494157025877403 7.981109186137351 47.69260883109271 -2 -4 0
3467 2 8.82061233511864 2.195502603271529 50.035654379363386 1 1 -2
4635 1 7.540937866437776 -2.116947947700117 44.85397362249742 3 3 1
1505 2 8.032051821561542 13.199448389529964 29.843385942638662 -3 0 -1
417 2 6.307430248130354 11.008829604121814 43.359728382860844 4 -3 -1
1274 2 7.985593056064116 3.5424102996391964 34.45496460021594 -2 2 0
2644 2 6.025555003925425 1.6490002416192757 40.75803073339967 0 1 0
2961 2 8.961726735982701 9.101566999579443 31.466808623338245 1 2 0
1019 1 8.24072651007821 8.986600576702632 40.02003212490141 -3 -2 0
2841 2 8.474885067510233 -1.3695768860872322 33.186874124788865 -4 -2 0
368 1 8.479544108537528 4.171687024295314 48.479024454344845 6 -1 -1
4678 2 8.96039502364154 1.4744742898352072 41.090107106605025 -3 -2 1
4256 2 9.232255746945876 9.12438952288698 46.9473902167078 4 4 1
2939 1 2.92881712163826 11.77869738274641 50.11539554086054 -1 1 0
4956 1 9.30713417110422 13.10220938304755 34.75384562687213 -2 -1 0
3302 1 3.5919943194962003 6.995956074431918 69.38830679097003 4 1 0
1471 2 3.310561598940965 -1.0210179761436762 51.55654221328849 2 1 0
3922 1 7.819312147099345 -1.6118297539401594 56.11616853276369 3 -1 0
2433 1 3.436341847498354 12.920945397937384 58.58879094440422 2 -4 0
3609 2 5.770116728923697 0.957752355803331 54.99338134795561 -2 0 0
1482 2 7.805960795991752 1.4332452255488297 52.190430540289675 0 -1 0
3900 1 5.670876228188945 3.161536867860333 53.21687428122669 2 2 1
4994 2 5.023958791091532 0.9341398949131952 51.92878518905551 -4 5 1
669 1 5.090552670073164 -1.9069598014871474 53.64740621650109 0 5 0
3179 1 4.9400853456120934 15.068018626775931 67.85033559259128 2 0 0
806 2 2.928308612280943 14.027302124734078 60.833146800198726 -1 -3 0
244 1 7.248131285548095 10.904809360927484 69.17602927950603 0 0 -1
2172 2 2.9273009400304746 3.915826707029761 53.10949887606025 2 0 0
2189 2 8.381388718947306 3.4822089164455807 63.34612369317728 1 3 0
4438 1 4.3468856004675205 9.32977448942964 53.79543294825303 4 1 0
319 2 4.228666553475135 -1.0801568483818955 56.46551698861085 -1 0 0
3878 2 7.793383408998493 11.095769643833295 57.77285331043523 0 4 0
1447 1 7.020022241360118 10.651118146645626 52.24085025547557 0 -2 0
4718 1 5.128422268237106 5.958099885190782 53.34205287101155 -1 -2 1
524 2 6.850170064434932 -0.408873312863804 51.09676201168957 0 1 -2
4630 2 3.0042272333180633 7.096595594897808 60.365103045178564 0 -4 1
3824 1 8.652317294707498 5.566496741700481 60.96233620677015 1 -2 0
1385 2 9.214183436960273 12.732445489611276 70.11413605019013 -1 -1 -1
3991 1 4.765048386229583 12.177277714893346 66.90056889303199 0 2 0
3261 2 6.591057678005109 0.546455984603301 57.466164684547756 -1 4 0
4856 2 9.105218738900975 1.5301929777379186 66.02406384006122 1 3 0
4010 1 8.6598782241538 8.478112269173113 69.67568797871738 8 1 0
1126 1 5.9013633453438725 7.279317286260637 51.256604601230414 -5 1 0
1160 1 4.48790611009612 3.0210567817647007 56.00373099383642 1 2 0
198 2 3.811310241958247 -2.337752766449821 65.90433548142627 3 2 0
4926 2 8.714794216004385 7.3376253938373885 58.89310477207278 0 0 0
1009 2 7.2184218782155085 2.657219248284272 55.477617014418136 -1 1 -1
1252 2 4.133426361964679 0.3600559935389671 58.62922759965837 0 9 -2
1220 1 7.0506597687752635 13.234595830054039 65.70191863886828 -1 3 0
2880 2 7.887121613563998 12.831313262545182 59.79603441497235 -1 -2 0
4107 2 8.65661464739032 15.54253757988068 65.3609410443959 -3 0 0
1619 2 7.49862114041324 5.157041432383378 54.30977623805027 -4 1 0
4911 2 5.3402734564011975 5.49757237531202 56.8580138687251 -1 0 0
4137 1 3.7814407035766187 9.007517355766106 55.9189657765752 2 2 0
1867 2 6.3426468806081875 10.289800290211984 54.96811643873726 -1 -1 0
804 1 4.977711863599676 7.634860072812041 66.51261188990335 1 1 -1
341 1 4.8019164804922205 11.102289675255674 57.53931283965621 3 1 0
4720 1 5.447589317743445 14.564242554470049 53.91457814715013 -2 3 0
1671 1 7.349878913573019 7.688204730455398 53.83297296295655 0 1 0
4540 1 3.5188305222239915 13.112891921540445 55.944122264182035 3 -1 0
246 2 4.205474823948476 3.821455898269625 50.84674874231943 -1 -4 0
2139 1 8.415235448709655 12.066915672902745 53.664185438420326 -4 2 0
2874 1 5.0635910831394355 11.965478860944676 53.23362575126223 0 -1 0
2260 2 6.332113108404259 13.189388462192342 55.662789486971995 2 0 0
207 1 6.971299173860105 3.8179111743040144 50.47342462713086 1 2 0
4506 2 5.717092090526801 -2.034690103315481 51.38471197883393 -2 -1 0
955 1 8.792347076945122 -1.7302918855445428 66.84016717471997 -1 -1 -1
2750 2 5.237260587381875 -2.0899520324581027 58.705834274224024 2 0 1
4085 1 5.043717248133825 15.157208960434279 70.55896100755592 -2 -7 -1
2265 2 3.0329143992727126 -0.6677089323780123 61.67165302747703 -1 2 0
793 1 9.173999809169999 14.054670072080718 56.95634709345456 0 0 0
3634 1 4.546379225997144 0.858505851585762 64.35442887867396 -1 2 1
1031 2 6.026141982194973 2.0080833913231473 62.324978338434924 1 1 -2
576 2 7.847743971948662 1.1585436061854448 60.46389679478283 0 1 -1
668 2 6.036837354736596 3.4699539917094366 64.41457775709898 -4 0 0
2944 1 3.1314820479516063 15.34306082566789 65.75454338279022 1 -2 0
252 1 6.013336931589892 -0.7071385589437027 61.71510807745158 -4 -4 0
1782 2 3.301128245982143 7.715777003603359 52.01376418819455 1 -3 0
50 1 4.6838147298191775 7.3571052332991 62.64504238793247 3 2 -1