

# Styles
	units        metal
	atom_style   atomic
	pair_style   eam/fs

# Neighbour list
	neighbor        2.0 bin
	neigh_modify    check yes


# Boundary conditions
	boundary p p p


# ----------------- Atom Definition Section -----------------

read_data "en_min_W-Mo.data"
Reading data file ...
  orthogonal box = (0.046127475 0.046127475 0.11531869) to (31.603873 31.603873 79.009681)
  2 by 4 by 5 MPI processor grid
  reading atom labelmap ...
  reading atoms ...
  5000 atoms
  reading velocities ...
  5000 velocities
  read_data CPU = 0.068 seconds

# ----------------- Settings Section -----------------

include "liquid.in.settings"
# ----- SETTINGS -----
# Forcefield
	pair_coeff * * W-Mo.eam.fs W Mo

# Collection of atoms
	group alloy type  1 2
5000 atoms in group alloy


# ----------------- Run Section -----------------

include "liquid.in.run"
# Thermo output
	compute msd all msd
	compute myRDF all rdf 50

	fix 1 all ave/time 500 1 500 c_myRDF[*] file RDF.txt mode vector

	thermo          1000
	thermo_style    custom step temp press pe ke etotal vol density enthalpy c_msd[1] c_msd[2] c_msd[3]
	thermo_modify   flush yes

# Dump configuration
	dump            d1 all custom 50000 annealed_W-Mo.dump id type element x y z xu yu zu vx vy vz
	dump_modify     d1 element W Mo


# ----- INITIAL EQUILIBRATION AT Ti -----
	velocity        all create ${Ti} 872392 dist gaussian
	velocity        all create 300 872392 dist gaussian
	fix             feq all npt temp ${Ti} ${Ti} ${tdamp} aniso ${press} ${press} ${pdamp}
	fix             feq all npt temp 300 ${Ti} ${tdamp} aniso ${press} ${press} ${pdamp}
	fix             feq all npt temp 300 300 ${tdamp} aniso ${press} ${press} ${pdamp}
	fix             feq all npt temp 300 300 0.1 aniso ${press} ${press} ${pdamp}
	fix             feq all npt temp 300 300 0.1 aniso 1 ${press} ${pdamp}
	fix             feq all npt temp 300 300 0.1 aniso 1 1 ${pdamp}
	fix             feq all npt temp 300 300 0.1 aniso 1 1 1
	run             200000    # 200 ps
Neighbor list info ...
  update: every = 1 steps, delay = 0 steps, check = yes
  max neighbors/atom: 2000, page size: 100000
  master list distance cutoff = 7.3
  ghost atom cutoff = 7.3
  binsize = 3.65, bins = 9 9 22
  2 neighbor lists, perpetual/occasional/extra = 1 1 0
  (1) pair eam/fs, perpetual
      attributes: half, newton on
      pair build: half/bin/atomonly/newton
      stencil: half/bin/3d
      bin: standard
  (2) compute rdf, occasional, copy from (1)
      attributes: half, newton on
      pair build: copy
      stencil: none
      bin: none
Per MPI rank memory allocation (min/avg/max) = 4.088 | 4.092 | 4.097 Mbytes
   Step          Temp          Press          PotEng         KinEng         TotEng         Volume        Density        Enthalpy       c_msd[1]       c_msd[2]       c_msd[3]   
         0   300            2635.34       -39329.129      193.85144     -39135.277      78570.207      14.790458     -39006.041      0              0              0            
      1000   312.33849      914.69887     -39125.87       201.82422     -38924.045      79559.937      14.606464     -38878.624      0.0043833224   0.0040280233   0.012262457  
      2000   295.66457      1624.3585     -39134.253      191.05001     -38943.203      79507.709      14.616059     -38862.594      0.0042044696   0.0038710881   0.011866103  
      3000   300.44524     -982.85265     -39130.942      194.13914     -38936.803      79593.723      14.600264     -38985.629      0.0047546295   0.0042903624   0.012308301  
      4000   300.51401      1042.5594     -39133.417      194.18358     -38939.233      79531.546      14.611678     -38887.481      0.0047411424   0.0039814309   0.0099662046 
      5000   295.55048      806.73711     -39132.002      190.97629     -38941.025      79531.593      14.61167      -38900.979      0.0042158793   0.0044707432   0.0097750367 
      6000   302.69542     -316.30564     -39131.161      195.59314     -38935.567      79574.344      14.60382      -38951.277      0.0041868485   0.0048835476   0.011130096  
      7000   297.84396     -1588.8119     -39134.711      192.45827     -38942.252      79596.016      14.599843     -39021.184      0.0044076044   0.0046001275   0.013005503  
      8000   306.81495      1755.7311     -39133.431      198.25506     -38935.176      79512.665      14.615148     -38848.042      0.004051834    0.0035421923   0.015333745  
      9000   299.17862      2328.5938     -39132.423      193.32069     -38939.102      79495.545      14.618296     -38823.564      0.0038946617   0.0036830466   0.013098661  
     10000   303.19568      1025.9613     -39131.984      195.9164      -38936.068      79532.277      14.611544     -38885.139      0.0042679301   0.0045010625   0.010175432  
     11000   300.56198      173.56261     -39129.886      194.21458     -38935.671      79568.965      14.604807     -38927.052      0.0046870486   0.0043308288   0.010261439  
     12000   298.2363       119.47931     -39132.614      192.71179     -38939.902      79564.383      14.605648     -38933.969      0.0044437272   0.0036512514   0.012493178  
     13000   305.02067      857.98955     -39133.674      197.09565     -38936.579      79528.886      14.612167     -38893.99       0.0038027038   0.0037569999   0.014690157  
     14000   298.83206     -79.268937     -39134.41       193.09675     -38941.313      79549.314      14.608415     -38945.249      0.0040585212   0.0038998196   0.014350281  
     15000   299.53931      421.93863     -39131.606      193.55375     -38938.053      79545.274      14.609157     -38917.104      0.0044133685   0.0037628727   0.012749685  
     16000   299.56539     -191.26326     -39131.817      193.57061     -38938.246      79567.67       14.605045     -38947.745      0.0043585198   0.0043641264   0.010141877  
     17000   300.12969     -1154.2938     -39137.212      193.93524     -38943.276      79570.58       14.604511     -39000.603      0.0045623179   0.0048457838   0.0083875921 
     18000   300.58402      437.57172     -39132.558      194.22882     -38938.329      79537.772      14.610535     -38916.606      0.0043601554   0.004260703    0.0095565844 
     19000   298.36486     -208.04627     -39129.641      192.79486     -38936.847      79577.974      14.603154     -38947.18       0.0044657672   0.0037764501   0.014121539  
     20000   300.65583      692.01765     -39134.082      194.27522     -38939.807      79526.599      14.612587     -38905.457      0.0045413868   0.0039876162   0.013034248  
     21000   300.3239       73.94692      -39132.444      194.06074     -38938.383      79563.976      14.605723     -38934.711      0.0040917551   0.0039103781   0.01563764   
     22000   303.78794     -1489.817      -39129.641      196.2991      -38933.342      79621.328      14.595202     -39007.379      0.0044416453   0.004394809    0.013530629  
     23000   299.11427      35.809215     -39129.783      193.2791      -38936.504      79580.427      14.602703     -38934.725      0.0042720792   0.0043922345   0.011525177  
     24000   297.60621     -1618.2394     -39138.091      192.30464     -38945.786      79578.884      14.602987     -39026.163      0.0039363773   0.0048081238   0.011351925  
     25000   303.95349     -296.08642     -39131.634      196.40607     -38935.228      79580.623      14.602667     -38949.934      0.0042096335   0.0041902021   0.012230197  
     26000   293.33668      358.11106     -39133.272      189.54579     -38943.726      79548.067      14.608644     -38925.946      0.0042017935   0.0037695752   0.012475711  
     27000   295.34369     -253.29415     -39129.333      190.84266     -38938.49       79571.731      14.604299     -38951.07       0.0050211459   0.0036816698   0.012490559  
     28000   298.94697     -2451.1274     -39131.682      193.171       -38938.511      79620.51       14.595352     -39060.32       0.0045383477   0.0041067229   0.015274625  
     29000   301.86551      2121.7037     -39130.691      195.05688     -38935.634      79523.567      14.613144     -38830.324      0.0038561616   0.0045517348   0.012261317  
     30000   292.90363     -868.53536     -39131.874      189.26597     -38942.608      79581.585      14.602491     -38985.749      0.0043570006   0.0043298318   0.011825462  
     31000   296.41485     -110.38427     -39130.004      191.53482     -38938.469      79578.615      14.603036     -38943.952      0.0045135746   0.004166996    0.013177527  
     32000   297.54482      1428.5583     -39131.449      192.26497     -38939.184      79524.201      14.613028     -38868.277      0.0044818297   0.0039949411   0.014071379  
     33000   299.31209     -2120.2095     -39134.847      193.40693     -38941.44       79610.799      14.597132     -39046.792      0.0048955141   0.0042113648   0.013018259  
     34000   303.12775     -21.408425     -39133.309      195.8725      -38937.436      79556.108      14.607167     -38938.499      0.0042398376   0.0041979515   0.012023962  
     35000   303.09901      1084.3867     -39130.011      195.85393     -38934.157      79537.257      14.610629     -38880.325      0.003784461    0.0050542975   0.011157834  
     36000   301.60339      1152.6836     -39133.704      194.8875      -38938.816      79533.186      14.611377     -38881.596      0.0041563136   0.0047634834   0.010461945  
     37000   306.28204      673.09588     -39132.831      197.91072     -38934.921      79546.655      14.608903     -38901.502      0.0044919339   0.0038730748   0.012175173  
     38000   298.26987      1085.337      -39133.882      192.73348     -38941.149      79528.08       14.612315     -38887.275      0.0044999889   0.0040060877   0.010659667  
     39000   300.12358     -163.77992     -39133.685      193.93129     -38939.754      79571.653      14.604314     -38947.888      0.004292795    0.0048294609   0.011938347  
     40000   305.8887      -431.47769     -39132.218      197.65655     -38934.561      79578.527      14.603052     -38955.992      0.0038514179   0.0047595546   0.013647073  
     41000   305.53829      559.54251     -39135.795      197.43013     -38938.365      79530.901      14.611797     -38910.589      0.0034187425   0.0041339579   0.014357555  
     42000   304.45553     -341.22495     -39129.857      196.73047     -38933.126      79578.972      14.60297      -38950.075      0.0043306007   0.004687546    0.012687235  
     43000   297.14892      513.07827     -39130.63       192.00915     -38938.621      79559.952      14.606462     -38913.143      0.0049089099   0.0047269949   0.010283963  
     44000   293.1932       1637.0177     -39131.167      189.45308     -38941.714      79516.995      14.614352     -38860.468      0.0041062206   0.0043873833   0.0099833737 
     45000   303.95682      17.195136     -39133.107      196.40823     -38936.698      79567.679      14.605043     -38935.845      0.0042236303   0.004336876    0.012861305  
     46000   298.84948     -967.82108     -39133.55       193.10801     -38940.442      79581.797      14.602452     -38988.514      0.0036798869   0.0048975819   0.016409393  
     47000   298.49443      318.61652     -39127.796      192.87858     -38934.917      79571.488      14.604344     -38919.093      0.0037687972   0.0046128178   0.013652858  
     48000   296.70944     -727.29166     -39133.145      191.72517     -38941.42       79575.561      14.603596     -38977.542      0.0043677892   0.0041131045   0.011898068  
     49000   300.15884     -2781.8517     -39129.948      193.95407     -38935.994      79643.24       14.591186     -39074.278      0.0054233421   0.0043352933   0.012922274  
     50000   300.38281      1061.145      -39133.055      194.0988      -38938.956      79523.534      14.613151     -38886.287      0.0047164663   0.0041757536   0.010997127  
     51000   302.63         1571.2357     -39128.229      195.55087     -38932.678      79540.605      14.610014     -38854.674      0.0037034564   0.0044603279   0.013157296  
     52000   298.43773     -586.69482     -39131.65       192.84194     -38938.808      79586.313      14.601623     -38967.951      0.0040274924   0.0048212858   0.011175213  
     53000   302.33741      1714.1931     -39136.611      195.36181     -38941.249      79496.8        14.618065     -38856.194      0.0044689995   0.0044249674   0.0087323961 
     54000   302.18672      1184.5356     -39135.411      195.26444     -38940.147      79502.9        14.616943     -38881.368      0.0043766955   0.0039802889   0.01100431   
     55000   303.82986      902.96144     -39135.325      196.32619     -38938.999      79529.395      14.612074     -38894.177      0.0040441867   0.0037277042   0.012386285  
     56000   304.70881      1540.9176     -39134.252      196.89414     -38937.357      79511.805      14.615306     -38860.886      0.0041746192   0.0038190023   0.011617261  
     57000   298.9889       181.30945     -39133.726      193.19809     -38940.528      79546.71       14.608893     -38931.526      0.0043912638   0.0046852542   0.010816261  
     58000   301.28473      876.74787     -39128.467      194.6816      -38933.786      79569.053      14.604791     -38890.244      0.0041813852   0.0044176638   0.01238532   
     59000   303.17489      60.174724     -39136.318      195.90296     -38940.415      79538.574      14.610387     -38937.428      0.0041053685   0.0037162473   0.012737189  
     60000   303.91788     -2073.9729     -39128.182      196.38306     -38931.799      79633.564      14.59296      -39034.883      0.0052065035   0.0041007891   0.014517857  
     61000   296.1744       874.54017     -39132.542      191.37945     -38941.163      79528.998      14.612147     -38897.752      0.0045724887   0.0041276904   0.01079055   
     62000   303.7814       449.34211     -39132.263      196.29487     -38935.968      79549.972      14.608294     -38913.658      0.0039447138   0.004318575    0.010545988  
     63000   293.92551     -1020.4756     -39129.221      189.92628     -38939.295      79602.493      14.598655     -38989.996      0.0041060333   0.0046194065   0.012769668  
     64000   303.1025      -1412.3919     -39132.302      195.85619     -38936.446      79610.061      14.597268     -39006.626      0.0045971078   0.0047333853   0.016827335  
     65000   302.61722     -477.09717     -39131.917      195.54261     -38936.374      79560.917      14.606284     -38960.066      0.0042841505   0.0041590031   0.013325154  
     66000   293.81551     -1463.9281     -39128.333      189.8552      -38938.478      79621.743      14.595126     -39011.229      0.0044684289   0.0042692351   0.013651781  
     67000   298.81173     -514.36137     -39135.852      193.08361     -38942.769      79558.046      14.606811     -38968.31       0.0046916713   0.0045052489   0.011467415  
     68000   301.559        3593.0446     -39134.58       194.85882     -38939.722      79457.719      14.625255     -38761.53       0.0037374485   0.0053804724   0.0076123278 
     69000   301.55343     -824.72526     -39133.328      194.85522     -38938.472      79588.902      14.601148     -38979.441      0.0039754855   0.0046493697   0.012435639  
     70000   302.75995     -1508.1539     -39133.567      195.63484     -38937.933      79592.381      14.60051      -39012.854      0.0041075095   0.0041367096   0.014700215  
     71000   306.18771      1122.7968     -39132.418      197.84976     -38934.568      79529.025      14.612142     -38878.834      0.0042864987   0.0047251668   0.011638028  
     72000   298.91916      3614.7599     -39132.926      193.15303     -38939.773      79462.361      14.6244       -38760.494      0.0036498411   0.0041495341   0.010530464  
     73000   300.46868     -642.13733     -39132.344      194.15429     -38938.19       79568.438      14.604904     -38970.08       0.0038926665   0.0044410018   0.011397238  
     74000   292.53992      1174.0612     -39131.343      189.03095     -38942.312      79540.054      14.610115     -38884.026      0.0041659584   0.0047239747   0.0097644295 
     75000   303.84393      311.24756     -39130.836      196.33528     -38934.5        79562.933      14.605914     -38919.044      0.0040614117   0.0046259137   0.01141026   
     76000   298.36263      680.2387      -39133.489      192.79342     -38940.696      79526.296      14.612643     -38906.931      0.0041861721   0.0040140343   0.012270055  
     77000   301.52812     -1295.6834     -39134.97       194.83887     -38940.131      79585.77       14.601723     -39004.492      0.004523801    0.0038851009   0.012576038  
     78000   298.3069      -1212.9416     -39136.45       192.75741     -38943.692      79570.579      14.604511     -39003.932      0.0041445553   0.0043165428   0.012533683  
     79000   300.07807      1262.671      -39131.211      193.90189     -38937.309      79528.921      14.612161     -38874.633      0.0040188082   0.0045055992   0.0099217572 
     80000   293.98155     -1410.1981     -39133.488      189.96249     -38943.526      79594.079      14.600199     -39013.583      0.0040099844   0.0046322672   0.010689026  
     81000   295.94073      990.92384     -39131.373      191.22845     -38940.144      79530.993      14.61178      -38890.956      0.0039501605   0.004169032    0.012956275  
     82000   296.59662     -109.36486     -39130.02       191.65227     -38938.368      79569.033      14.604794     -38943.799      0.0043417649   0.0044707922   0.013954981  
     83000   303.27497      2503.0287     -39134.566      195.96763     -38938.598      79495.094      14.618378     -38814.406      0.0039289571   0.0039848738   0.012165541  
     84000   299.42567      2651.1989     -39131.924      193.48033     -38938.444      79502.02       14.617105     -38806.888      0.0041881197   0.0040284442   0.0096362387 
     85000   301.217        538.03395     -39133.383      194.63783     -38938.745      79535.882      14.610882     -38912.036      0.0046325093   0.0043859      0.0096013151 
     86000   300.66824      1226.9228     -39139.756      194.28324     -38945.473      79499.791      14.617515     -38884.593      0.0042249515   0.0041077069   0.009882949  
     87000   301.63501     -1643.2786     -39131.08       194.90794     -38936.172      79604.138      14.598354     -39017.818      0.003964734    0.0045485496   0.013892695  
     88000   302.48472     -49.030974     -39135.781      195.457       -38940.324      79560.578      14.606346     -38942.759      0.0038568316   0.0042992221   0.013192251  
     89000   306.97907     -208.6488      -39131.214      198.36111     -38932.853      79575.651      14.60358      -38943.216      0.0040307533   0.0039839009   0.015697757  
     90000   301.57656     -342.27945     -39134.712      194.87017     -38939.842      79570.377      14.604548     -38956.841      0.0042533241   0.0040996577   0.012305426  
     91000   303.39702      1032.602      -39131.344      196.0465      -38935.298      79549.331      14.608412     -38884.028      0.0046722494   0.0037007374   0.0094618331 
     92000   298.73934      1571.9115     -39132.402      193.03683     -38939.366      79526.264      14.612649     -38861.342      0.0047871674   0.0041050707   0.0094965961 
     93000   302.84086      2191.0423     -39132.949      195.68712     -38937.262      79500.983      14.617296     -38828.541      0.0041771065   0.0040740431   0.011634212  
     94000   300.1111      -590.4721      -39128.964      193.92323     -38935.04       79601.677      14.598805     -38964.377      0.0041349867   0.003999449    0.015384647  
     95000   298.61274     -1947.8945     -39133.53       192.95503     -38940.575      79612.988      14.596731     -39037.367      0.0042918494   0.0041343571   0.012922164  
     96000   292.02938     -1859.8439     -39133.372      188.70105     -38944.671      79607.971      14.597651     -39037.082      0.0052086051   0.0045735058   0.01101491   
     97000   297.42546     -223.13847     -39130.039      192.18784     -38937.852      79574.445      14.603801     -38948.934      0.0044717976   0.0042857269   0.012569873  
     98000   296.42047      701.36879     -39137.94       191.53845     -38946.401      79520.636      14.613683     -38911.59       0.0035772932   0.0039188424   0.012562253  
     99000   296.97099      1082.6078     -39131.255      191.89418     -38939.361      79540.033      14.610119     -38885.615      0.0036669458   0.0044747417   0.01277393   
    100000   301.42602      3200.265      -39136.279      194.7729      -38941.506      79464.735      14.623963     -38782.78       0.0040525188   0.0042200772   0.0087596532 
    101000   299.75032     -2481.7003     -39130.97       193.6901      -38937.28       79630.76       14.593473     -39060.625      0.0046152177   0.0045561144   0.010890332  
    102000   297.38246      728.57545     -39130.298      192.16006     -38938.138      79554.871      14.607394     -38901.961      0.0044144765   0.003774657    0.012988541  
    103000   298.59707     -1126.5545     -39132.221      192.94491     -38939.276      79586.353      14.601616     -38995.237      0.0047096774   0.0039432639   0.013907458  
    104000   305.97695      130.39749     -39132.391      197.71358     -38934.678      79554.665      14.607432     -38928.203      0.0043738242   0.0045356043   0.012015621  
    105000   299.51374     -612.16738     -39131.941      193.53723     -38938.404      79575.994      14.603517     -38968.808      0.0039244045   0.0049131456   0.010049132  
    106000   302.00517      459.02583     -39135.034      195.14712     -38939.887      79546.336      14.608962     -38917.097      0.0042582485   0.0040703128   0.01050082   
    107000   303.52239     -468.43599     -39134.051      196.12751     -38937.924      79560.03       14.606447     -38961.185      0.0044065204   0.0042903868   0.012759821  
    108000   302.39222      679.24303     -39136.858      195.39722     -38941.461      79530.045      14.611954     -38907.744      0.0042015513   0.0036306898   0.014158128  
    109000   299.33365      984.29948     -39133.649      193.42086     -38940.228      79537.122      14.610654     -38891.365      0.0041374419   0.00376162     0.012317968  
    110000   305.48939     -997.82143     -39133.804      197.39852     -38936.406      79594.273      14.600163     -38985.976      0.0044786891   0.0044650786   0.012450196  
    111000   292.59133     -98.032167     -39126.831      189.06417     -38937.767      79587.197      14.601461     -38942.636      0.0043669598   0.0047024273   0.012458814  
    112000   292.03928     -99.663815     -39127.756      188.70745     -38939.049      79587.471      14.601411     -38944          0.0039707305   0.0044700949   0.011663661  
    113000   296.28068     -1195.172      -39130.862      191.44812     -38939.414      79599.819      14.599146     -38998.793      0.0045089754   0.0040882146   0.013238324  
    114000   296.36787      137.78853     -39130.259      191.50446     -38938.754      79572.704      14.604121     -38931.911      0.0048848131   0.0044456903   0.011487893  
    115000   303.25635      93.090684     -39134.191      195.9556      -38938.236      79547.933      14.608668     -38933.614      0.0049663063   0.0041392269   0.0091825569 
    116000   301.19612     -492.4935      -39132.844      194.62434     -38938.219      79568.419      14.604907     -38962.678      0.0041626357   0.0043613465   0.010325567  
    117000   296.74392      1584.9472     -39131.292      191.74746     -38939.544      79519.756      14.613845     -38860.88       0.0041307027   0.0043623584   0.011191278  
    118000   306.10423     -699.91903     -39130.316      197.79582     -38932.52       79594.422      14.600136     -38967.292      0.0047878633   0.0042038767   0.012698314  
    119000   299.92312      432.56963     -39134.434      193.80176     -38940.633      79541.076      14.609928     -38919.157      0.0042653404   0.0036082847   0.014775282  
    120000   301.38829      304.44122     -39129.07       194.74851     -38934.322      79570.673      14.604494     -38919.202      0.0042989344   0.0040739769   0.012605156  
    121000   297.95538     -116.85351     -39134.106      192.53027     -38941.575      79557.358      14.606938     -38947.378      0.0042471578   0.0041722947   0.010807583  
    122000   299.38352      1880.2986     -39132.357      193.45308     -38938.904      79516.723      14.614402     -38845.584      0.0045758498   0.003842517    0.0080713896 
    123000   304.16457     -819.95347     -39133.739      196.54246     -38937.197      79583.698      14.602103     -38977.926      0.0046225553   0.0038568434   0.011430939  
    124000   292.85715      107.33123     -39131.211      189.23593     -38941.975      79569.635      14.604684     -38936.644      0.004041279    0.0039927641   0.01384489   
    125000   295.0617      -673.74291     -39129.811      190.66045     -38939.15       79584.692      14.601921     -38972.617      0.0040252486   0.0042404903   0.014301723  
    126000   298.53691     -1260.21       -39131.001      192.90603     -38938.095      79601.251      14.598883     -39000.706      0.003732283    0.004648406    0.014516543  
    127000   295.55734     -356.36877     -39133.577      190.98072     -38942.597      79564.621      14.605604     -38960.294      0.0041994767   0.0042497559   0.012567408  
    128000   301.95959     -267.54419     -39131.11       195.11767     -38935.992      79571.468      14.604348     -38949.28       0.0045255792   0.0041768384   0.010972426  
    129000   297.02927      2125.1905     -39134.976      191.93184     -38943.044      79493.2        14.618727     -38837.601      0.0047373971   0.0035252418   0.010144667  
    130000   302.11214      1739.6676     -39132.599      195.21624     -38937.383      79510.435      14.615558     -38851.049      0.0044003612   0.0037021207   0.011284267  
    131000   293.52594      1036.1423     -39132.719      189.66808     -38943.051      79531.679      14.611654     -38891.617      0.0038029295   0.0038871027   0.012388203  
    132000   301.91858      631.89702     -39130.355      195.09117     -38935.264      79544.04       14.609383     -38903.892      0.0038433324   0.0043919653   0.013564943  
    133000   300.78257      530.71691     -39131.673      194.35711     -38937.316      79548.237      14.608613     -38910.965      0.0040425888   0.0042865691   0.012818797  
    134000   308.376       -893.76901     -39133.897      199.26377     -38934.633      79581.489      14.602508     -38979.027      0.004312352    0.0039345146   0.012996034  
    135000   294.66233     -1483.074      -39129.716      190.40239     -38939.314      79621.017      14.595259     -39013.016      0.0051045706   0.0039808561   0.010643439  
    136000   300.37687     -1338.6319     -39129.362      194.09496     -38935.267      79610.429      14.5972       -39001.783      0.0045723078   0.0046464635   0.011278959  
    137000   297.12255     -1273.6662     -39132.959      191.99212     -38940.967      79598.597      14.59937      -39004.245      0.004140143    0.0045134571   0.012709722  
    138000   296.87379     -2248.0558     -39129.526      191.83137     -38937.695      79635.267      14.592647     -39049.433      0.0041242561   0.0043261942   0.01510269   
    139000   297.20363      1242.5105     -39132.356      192.0445      -38940.312      79528.406      14.612255     -38878.637      0.0040297241   0.0038590867   0.01415476   
    140000   301.14582      1222.5593     -39131.84       194.59183     -38937.248      79537.552      14.610575     -38876.556      0.0039954456   0.0042350212   0.012985565  
    141000   302.71315      1782.7827     -39137.476      195.6046      -38941.871      79502.54       14.617009     -38853.407      0.0037960938   0.0039844653   0.010110451  
    142000   301.33363      1777.017      -39135.504      194.71319     -38940.79       79506.645      14.616255     -38852.607      0.0043174639   0.0038947603   0.010433299  
    143000   306.62562      1973.9093     -39130.76       198.13272     -38932.628      79517.894      14.614187     -38834.66       0.0042923015   0.0043849247   0.011308703  
    144000   296.48574      2398.6012     -39132.261      191.58062     -38940.68       79495.639      14.618278     -38821.668      0.0046205518   0.0034587085   0.012281203  
    145000   304.12078     -728.25748     -39135.833      196.51417     -38939.319      79556.561      14.607084     -38975.48       0.0047620773   0.0035749852   0.011203345  
    146000   296.09771     -362.58016     -39133.383      191.32989     -38942.053      79567.453      14.605085     -38960.059      0.0044415339   0.0041570894   0.011745992  
    147000   304.34688     -348.84427     -39131.619      196.66027     -38934.958      79584.034      14.602042     -38952.286      0.0039696933   0.0045664047   0.01399584   
    148000   301.77537      229.80089     -39134.609      194.99863     -38939.61       79549.253      14.608426     -38928.2        0.0035178648   0.0044855687   0.012473656  
    149000   292.62852     -457.29795     -39132.499      189.0882      -38943.411      79580.691      14.602655     -38966.125      0.0044927448   0.0039732625   0.01288848   
    150000   299.33209      2320.3722     -39131.485      193.41985     -38938.066      79509.079      14.615807     -38822.916      0.0044105751   0.0036461606   0.011622074  
    151000   301.85373      1428.8994     -39135.034      195.04927     -38939.985      79514.231      14.61486      -38869.07       0.004106911    0.0038643375   0.010224632  
    152000   297.01746      973.98464     -39132.485      191.92421     -38940.56       79530.332      14.611901     -38892.213      0.0047837804   0.0037831677   0.0098642152 
    153000   300.01667      478.72371     -39135.159      193.86221     -38941.296      79544.72       14.609258     -38917.529      0.0044291028   0.0043551177   0.011336367  
    154000   301.67474      1768.4433     -39130.62       194.93361     -38935.687      79518.839      14.614013     -38847.916      0.003421859    0.0045260254   0.013648854  
    155000   297.96972     -275.71481     -39134.85       192.53953     -38942.311      79552.846      14.607766     -38956.001      0.003747934    0.0041835878   0.012752366  
    156000   298.0412      -572.23721     -39131.032      192.58572     -38938.446      79592.14       14.600554     -38966.873      0.004975181    0.0039415412   0.01313745   
    157000   294.65588      303.44435     -39136.231      190.39822     -38945.833      79534.682      14.611102     -38930.769      0.0047904998   0.0041843122   0.010261534  
    158000   303.44543      470.16398     -39132.901      196.07778     -38936.823      79547.391      14.608768     -38913.479      0.0043353148   0.00475062     0.0081084899 
    159000   303.25149      559.81607     -39130.53       195.95246     -38934.578      79554.147      14.607527     -38906.781      0.003918222    0.004528775    0.011758737  
    160000   300.17942      2088.327      -39134.838      193.96738     -38940.87       79495.501      14.618304     -38837.253      0.003976509    0.0040755801   0.013629575  
    161000   304.08781     -799.33879     -39129.719      196.49287     -38933.226      79595.416      14.599953     -38972.937      0.0044498466   0.0042534602   0.015264584  
    162000   298.28916      404.12282     -39132.605      192.74595     -38939.859      79545.658      14.609086     -38919.795      0.004098308    0.004585789    0.010730133  
    163000   302.24667      528.33124     -39131.319      195.30317     -38936.016      79540.892      14.609961     -38909.787      0.0043528068   0.004266816    0.010111083  
    164000   303.66469     -2618.6249     -39130.56       196.21946     -38934.34       79643.476      14.591143     -39064.511      0.0048038654   0.004631858    0.013471857  
    165000   299.82283     -33.227068     -39134.733      193.73696     -38940.996      79552.222      14.607881     -38942.645      0.0045233218   0.0041842555   0.011816621  
    166000   297.11271     -742.6477      -39131.343      191.98576     -38939.357      79585.788      14.60172      -38976.247      0.0043702421   0.0037352893   0.015622016  
    167000   296.14614      195.72133     -39131.543      191.36119     -38940.182      79560.511      14.606359     -38930.463      0.0042234869   0.0037938446   0.015057116  
    168000   300.49365      1106.9666     -39130.631      194.17043     -38936.46       79534.797      14.611081     -38881.508      0.0040547393   0.0043066511   0.01069001   
    169000   297.19342      365.85085     -39131.453      192.03791     -38939.416      79568.401      14.60491      -38921.246      0.0042881481   0.0043079736   0.01128947   
    170000   300.40638      184.21395     -39131.806      194.11403     -38937.692      79564.788      14.605574     -38928.544      0.0038341372   0.0041603161   0.013413179  
    171000   299.63109      1676.5151     -39130.141      193.61306     -38936.528      79528.8        14.612183     -38853.31       0.0033643791   0.0048522254   0.011588166  
    172000   302.35082     -7.5664485     -39134.826      195.37047     -38939.455      79537.341      14.610614     -38939.831      0.0041882708   0.0040507707   0.010816536  
    173000   302.28125     -545.88063     -39133.452      195.32552     -38938.127      79558.51       14.606726     -38965.233      0.0043187852   0.0039607873   0.012358172  
    174000   301.15951      583.08866     -39135.327      194.60068     -38940.726      79528.993      14.612147     -38911.783      0.0043781993   0.0038162471   0.012313253  
    175000   303.69376      1101.703      -39135.094      196.23824     -38938.856      79513.344      14.615023     -38884.18       0.0037853563   0.0041719505   0.011737875  
    176000   298.29637     -656.50194     -39131.533      192.7506      -38938.782      79589.555      14.601029     -38971.395      0.0039599499   0.0046861891   0.012740391  
    177000   295.47274      468.4705      -39136.836      190.92605     -38945.91       79528.252      14.612284     -38922.657      0.004188962    0.004025209    0.013026944  
    178000   303.64242     -411.12966     -39133.177      196.20507     -38936.972      79570.58       14.604511     -38957.39       0.0044306065   0.0038251574   0.015452172  
    179000   297.55558      735.3285      -39130.42       192.27192     -38938.148      79548.389      14.608585     -38901.639      0.0041331166   0.0039302138   0.013773378  
    180000   302.31365      296.29984     -39133.302      195.34645     -38937.956      79553.673      14.607614     -38923.243      0.0039613251   0.00443209     0.012581525  
    181000   304.77325      201.32346     -39133.321      196.93577     -38936.385      79537.355      14.610611     -38926.391      0.0039836175   0.0044231734   0.011108808  
    182000   293.96345      1034.2058     -39138.36       189.95079     -38948.409      79517.059      14.61434      -38897.081      0.0041579189   0.0039970297   0.0099933535 
    183000   301.48477     -267.27005     -39132.211      194.81086     -38937.4        79570.948      14.604443     -38950.674      0.0042275874   0.004309181    0.012269905  
    184000   294.01441     -1695.5075     -39134.766      189.98372     -38944.782      79594.717      14.600082     -39029.013      0.0041564501   0.0039883478   0.016726219  
    185000   303.46098     -521.78468     -39131.135      196.08783     -38935.047      79589.739      14.600995     -38960.967      0.0041818578   0.0038962632   0.015815476  
    186000   302.89898     -493.77587     -39131.294      195.72468     -38935.569      79586.772      14.601539     -38960.097      0.0043851096   0.0039484217   0.01322733   
    187000   299.36046      2209.4542     -39134.865      193.43819     -38941.427      79504.595      14.616632     -38831.787      0.0042515732   0.0039938137   0.010999338  
    188000   307.92837      1342.7753     -39131.088      198.97453     -38932.114      79526.047      14.612689     -38865.463      0.0043355344   0.0042215532   0.010337595  
    189000   296.9321      -258.14577     -39131.711      191.86905     -38939.842      79565.387      14.605464     -38952.661      0.0039860168   0.0043588681   0.010176922  
    190000   297.57192      2241.3988     -39130.334      192.28248     -38938.051      79506.946      14.616199     -38826.823      0.0037456303   0.0043568664   0.011530096  
    191000   297.81008      483.74208     -39131.509      192.43638     -38939.073      79555.536      14.607272     -38915.053      0.0039592785   0.0045184722   0.01368223   
    192000   298.55106     -763.01085     -39131.81       192.91518     -38938.895      79581.164      14.602568     -38976.795      0.0049229206   0.0041249499   0.011191069  
    193000   299.09223     -1040.4836     -39136.796      193.26487     -38943.531      79564.722      14.605586     -38995.202      0.004973311    0.0038546914   0.01034623   
    194000   300.92118     -115.39363     -39134.748      194.44668     -38940.302      79553.482      14.607649     -38946.031      0.0039997613   0.0043559946   0.013883143  
    195000   300.89783     -1088.0059     -39128.19       194.43159     -38933.758      79595.919      14.599861     -38987.81       0.0043456048   0.0045271205   0.01542642   
    196000   300.70779      895.61328     -39132.801      194.30879     -38938.492      79547.865      14.608681     -38894.025      0.0044332372   0.0038724729   0.013247705  
    197000   301.71123      1679.3846     -39134.374      194.95719     -38939.417      79510.103      14.615619     -38856.075      0.0042375852   0.0038042909   0.010638267  
    198000   302.0946       399.58232     -39131.684      195.20491     -38936.479      79557.964      14.606826     -38916.637      0.0045136318   0.004397627    0.010393136  
    199000   292.79274     -1673.6408     -39133.683      189.19431     -38944.489      79603.284      14.59851      -39027.643      0.0042170435   0.0049041395   0.010687751  
    200000   299.68049     -2065.0543     -39131.528      193.64498     -38937.883      79629.446      14.593714     -39040.518      0.0040741224   0.0044780169   0.015819125  
Loop time of 109.343 on 40 procs for 200000 steps with 5000 atoms

Performance: 158.035 ns/day, 0.152 hours/ns, 1829.106 timesteps/s, 9.146 Matom-step/s
93.1% CPU use with 40 MPI tasks x 1 OpenMP threads

MPI task timing breakdown:
Section |  min time  |  avg time  |  max time  |%varavg| %total
---------------------------------------------------------------
Pair    | 60.611     | 63.092     | 65.587     |  16.9 | 57.70
Neigh   | 0          | 0          | 0          |   0.0 |  0.00
Comm    | 26.748     | 29.307     | 31.822     |  24.7 | 26.80
Output  | 0.074919   | 0.10533    | 0.14994    |   5.6 |  0.10
Modify  | 13.848     | 14.219     | 14.99      |   7.2 | 13.00
Other   |            | 2.62       |            |       |  2.40

Nlocal:            125 ave         136 max         113 min
Histogram: 1 3 5 3 8 4 7 2 3 4
Nghost:           1142 ave        1154 max        1131 min
Histogram: 4 3 2 7 4 8 3 5 3 1
Neighs:           7000 ave        7628 max        6403 min
Histogram: 3 4 2 6 5 9 4 0 4 3

Total # of neighbors = 280000
Ave neighs/atom = 56
Neighbor list builds = 0
Dangerous builds = 0
	unfix           feq

write_data	solid.data nocoeff
System init for write_data ...

# ----- HEATING FROM Ti TO Thigh -----
	fix             fheat all nvt temp ${Ti} ${Thigh} ${tdamp}
	fix             fheat all nvt temp 300 ${Thigh} ${tdamp}
	fix             fheat all nvt temp 300 6000 ${tdamp}
	fix             fheat all nvt temp 300 6000 0.1
	run             2000000   # 2 ns
Per MPI rank memory allocation (min/avg/max) = 5.351 | 5.354 | 5.359 Mbytes
   Step          Temp          Press          PotEng         KinEng         TotEng         Volume        Density        Enthalpy       c_msd[1]       c_msd[2]       c_msd[3]   
    200000   299.68049     -2065.0543     -39131.528      193.64498     -38937.883      79629.446      14.593714     -39040.518      0.0040741224   0.0044780169   0.015819125  
    201000   310.33415     -2083.5013     -39129.302      200.52907     -38928.773      79629.446      14.593714     -39032.325      0.0039598078   0.004327348    0.015584207  
    202000   300.78779     -1303.1561     -39124.812      194.36049     -38930.451      79629.446      14.593714     -38995.219      0.0040621363   0.004823286    0.015437467  
    203000   309.2223      -2334.8469     -39131.858      199.81063     -38932.048      79629.446      14.593714     -39048.091      0.0040408553   0.0050701092   0.015479791  
    204000   309.60683     -1312.7157     -39126.246      200.0591      -38926.187      79629.446      14.593714     -38991.43       0.0040351463   0.0046771282   0.01515917   
    205000   312.94786     -412.97275     -39124.067      202.21798     -38921.849      79629.446      14.593714     -38942.374      0.0041691296   0.004579941    0.015886063  
    206000   319.25587     -868.69386     -39122.316      206.29403     -38916.022      79629.446      14.593714     -38959.197      0.0042328337   0.0050516743   0.01537613   
    207000   320.81267      12.401772     -39119.54       207.29999     -38912.24       79629.446      14.593714     -38911.624      0.0043333047   0.0047726717   0.015016892  
    208000   315.34437     -298.09449     -39120.765      203.76653     -38916.998      79629.446      14.593714     -38931.814      0.0042801794   0.0045697399   0.015878777  
    209000   328.67685      42.424496     -39116.3        212.3816      -38903.919      79629.446      14.593714     -38901.81       0.004403038    0.0047691992   0.015684372  
    210000   319.93177      523.23428     -39113.983      206.73078     -38907.252      79629.446      14.593714     -38881.247      0.0043912798   0.0049855343   0.015595047  
    211000   328.01923      1267.0837     -39112.371      211.95667     -38900.414      79629.446      14.593714     -38837.439      0.0041637216   0.0047552202   0.015813405  
    212000   328.52302      1241.7263     -39110.493      212.2822      -38898.21       79629.446      14.593714     -38836.496      0.0043826211   0.0048001124   0.015813413  
    213000   332.79868      805.0612      -39112.565      215.04501     -38897.52       79629.446      14.593714     -38857.508      0.0042883128   0.0047481261   0.015520289  
    214000   343.4765       1361.6316     -39108.386      221.94471     -38886.441      79629.446      14.593714     -38818.767      0.0042683779   0.0050063166   0.015455706  
    215000   338.69021      1550.401      -39107.227      218.85195     -38888.375      79629.446      14.593714     -38811.319      0.004395265    0.0050419579   0.015976852  
    216000   348.26058      2102.0776     -39103.89       225.03605     -38878.854      79629.446      14.593714     -38774.379      0.0044696414   0.0050431717   0.016083659  
    217000   346.27237      2724.6904     -39104.015      223.75132     -38880.264      79629.446      14.593714     -38744.844      0.0047245277   0.0053696586   0.015959371  
    218000   351.77619      3285.7551     -39098.374      227.30774     -38871.066      79629.446      14.593714     -38707.761      0.0043979428   0.0050427988   0.015632534  
    219000   346.63137      2650.5893     -39100.948      223.9833      -38876.964      79629.446      14.593714     -38745.228      0.0045999012   0.0048449574   0.016441824  
    220000   357.12246      3682.8118     -39093.842      230.76234     -38863.079      79629.446      14.593714     -38680.041      0.0046182694   0.0055920679   0.016533378  
    221000   363.43576      4234.1984     -39093.242      234.84182     -38858.4        79629.446      14.593714     -38647.957      0.0049543923   0.0054328189   0.015083639  
    222000   361.85785      3150.6633     -39096.832      233.82222     -38863.01       79629.446      14.593714     -38706.419      0.0043229698   0.0050934481   0.01633993   
    223000   366.23754      3967.4026     -39090.621      236.65225     -38853.968      79629.446      14.593714     -38656.785      0.0046583974   0.0052618107   0.016481936  
    224000   363.88692      4755.229      -39089.968      235.13335     -38854.835      79629.446      14.593714     -38618.496      0.0046908807   0.0054838794   0.015866464  
    225000   375.68051      3955.8602     -39093.878      242.75403     -38851.124      79629.446      14.593714     -38654.515      0.0045936564   0.0052474046   0.015690776  
    226000   377.07088      4726.7018     -39090.482      243.65244     -38846.83       79629.446      14.593714     -38611.909      0.0045573963   0.0048983572   0.01667647   
    227000   377.41866      5585.0424     -39084.279      243.87717     -38840.402      79629.446      14.593714     -38562.821      0.0045542672   0.0057451311   0.016198267  
    228000   373.44237      5224.6183     -39084.971      241.30781     -38843.663      79629.446      14.593714     -38583.995      0.0047540156   0.0052653289   0.015609027  
    229000   379.58192      5426.7322     -39084.359      245.275       -38839.084      79629.446      14.593714     -38569.371      0.0049500571   0.0048393532   0.016761122  
    230000   389.73635      5792.5562     -39081.951      251.83651     -38830.115      79629.446      14.593714     -38542.22       0.0047193739   0.0051883041   0.016086742  
    231000   382.91413      6965.2332     -39074.019      247.42818     -38826.591      79629.446      14.593714     -38480.413      0.00470632     0.0056402573   0.015240004  
    232000   389.1232       6609.4271     -39076.771      251.44031     -38825.331      79629.446      14.593714     -38496.837      0.0049917112   0.005032289    0.017390059  
    233000   386.11279      6761.5431     -39079.52       249.49507     -38830.025      79629.446      14.593714     -38493.971      0.0050592333   0.0051146773   0.016770573  
    234000   397.6061       7038.9699     -39073.588      256.92172     -38816.667      79629.446      14.593714     -38466.824      0.0050970224   0.0056768518   0.015832497  
    235000   396.82305      8051.557      -39072.334      256.41573     -38815.918      79629.446      14.593714     -38415.749      0.0049942004   0.0052750157   0.01623772   
    236000   400.72142      7372.7758     -39071.328      258.93475     -38812.393      79629.446      14.593714     -38445.96       0.0053139561   0.0050502561   0.017618926  
    237000   400.45131      9082.2054     -39062.251      258.76021     -38803.49       79629.446      14.593714     -38352.098      0.0051046201   0.0053599823   0.01614284   
    238000   416.67416      8050.8754     -39068.754      269.24295     -38799.511      79629.446      14.593714     -38399.376      0.0046640195   0.0057068025   0.015697626  
    239000   411.67073      7498.1926     -39072.178      266.00988     -38806.168      79629.446      14.593714     -38433.502      0.0046562331   0.0055013717   0.017683325  
    240000   414.63007      8709.4887     -39063.822      267.92212     -38795.9        79629.446      14.593714     -38363.032      0.0052066363   0.0053955248   0.017215636  
    241000   411.00453      9438.2582     -39062.975      265.5794      -38797.395      79629.446      14.593714     -38328.306      0.0050802763   0.0056088186   0.015019293  
    242000   425.82686      9297.5868     -39062.783      275.15716     -38787.626      79629.446      14.593714     -38325.528      0.0048904315   0.0056677475   0.016926053  
    243000   422.02236      9435.1759     -39056.747      272.6988      -38784.048      79629.446      14.593714     -38315.112      0.0049026737   0.005410798    0.017633038  
    244000   420.4125       9925.6202     -39056.936      271.65856     -38785.277      79629.446      14.593714     -38291.966      0.005044034    0.0057931813   0.015567523  
    245000   426.35127      10999.813     -39052.455      275.49602     -38776.958      79629.446      14.593714     -38230.259      0.0050596339   0.0058269471   0.016545918  
    246000   425.47902      9984.9817     -39057.181      274.9324      -38782.249      79629.446      14.593714     -38285.987      0.0048154024   0.0053405641   0.018409347  
    247000   431.21267      9440.4322     -39056.464      278.63732     -38777.827      79629.446      14.593714     -38308.63       0.0050311528   0.0052733945   0.016513445  
    248000   440.55213      10259.849     -39051.288      284.67222     -38766.616      79629.446      14.593714     -38256.693      0.0052159344   0.0055626633   0.015621663  
    249000   432.24826      10278.459     -39052.405      279.30649     -38773.099      79629.446      14.593714     -38262.251      0.0052550515   0.0058531853   0.017640504  
    250000   441.18767      11187.884     -39048.104      285.08288     -38763.021      79629.446      14.593714     -38206.975      0.0051488592   0.0054234195   0.017611291  
    251000   441.3334       11539.358     -39043.565      285.17705     -38758.388      79629.446      14.593714     -38184.873      0.0054861391   0.0054375004   0.01557582   
    252000   446.07979      12215.026     -39037.738      288.24403     -38749.493      79629.446      14.593714     -38142.397      0.0056112378   0.005825594    0.016220911  
    253000   451.56459      13090.798     -39036.613      291.78815     -38744.825      79629.446      14.593714     -38094.202      0.0052703793   0.0057750163   0.018087887  
    254000   454.24124      11436.616     -39043.165      293.51772     -38749.647      79629.446      14.593714     -38181.238      0.0051522596   0.0059722891   0.016386732  
    255000   453.42355      13249.718     -39037.233      292.98936     -38744.244      79629.446      14.593714     -38085.722      0.0057696821   0.005984312    0.014931074  
    256000   459.49265      12782.68      -39038.688      296.91104     -38741.777      79629.446      14.593714     -38106.468      0.0055661168   0.0061146145   0.018022054  
    257000   455.8631       13200.428     -39036.187      294.56573     -38741.622      79629.446      14.593714     -38085.55       0.0053756915   0.0058414142   0.016734417  
    258000   465.92259      13677.475     -39033.069      301.06588     -38732.003      79629.446      14.593714     -38052.221      0.0051934844   0.0062557521   0.014739822  
    259000   462.24672      12502.923     -39039.842      298.69064     -38741.151      79629.446      14.593714     -38119.746      0.0055021236   0.0057270528   0.017375284  
    260000   473.52111      13819.957     -39030.07       305.97583     -38724.095      79629.446      14.593714     -38037.232      0.0058521792   0.0059565228   0.01711021   
    261000   475.80828      13715.914     -39030.83       307.45374     -38723.376      79629.446      14.593714     -38041.684      0.0055604928   0.0061131845   0.016228411  
    262000   468.85196      13525.818     -39033.567      302.95876     -38730.608      79629.446      14.593714     -38058.364      0.0052999274   0.0063747475   0.016275748  
    263000   474.24268      15278.261     -39018.512      306.44209     -38712.07       79629.446      14.593714     -37952.728      0.0059000784   0.0057469865   0.017786935  
    264000   476.75819      14704.527     -39022.914      308.06754     -38714.847      79629.446      14.593714     -37984.02       0.005723479    0.0058607249   0.017586833  
    265000   481.99729      15756.96      -39016.663      311.45289     -38705.21       79629.446      14.593714     -37922.077      0.0053957163   0.006242327    0.015846622  
    266000   481.5604       14512.009     -39022.955      311.17059     -38711.785      79629.446      14.593714     -37990.526      0.0055027711   0.0064537129   0.01765414   
    267000   490.93863      15468.161     -39016.115      317.23053     -38698.885      79629.446      14.593714     -37930.105      0.0059939755   0.00579507     0.018257115  
    268000   489.16507      16220.312     -39016.507      316.08451     -38700.422      79629.446      14.593714     -37894.26       0.0060322228   0.0061857474   0.015368571  
    269000   501.89951      16156.379     -39016.61       324.31314     -38692.297      79629.446      14.593714     -37889.312      0.0053393278   0.0064516409   0.017020287  
    270000   499.30052      16548.464     -39013.295      322.63375     -38690.662      79629.446      14.593714     -37868.19       0.0056923957   0.0061283001   0.017156148  
    271000   496.24777      16424.067     -39011.793      320.66115     -38691.132      79629.446      14.593714     -37874.842      0.0061103843   0.0062499395   0.017238107  
    272000   518.11417      16979.127     -39009.533      334.79059     -38674.743      79629.446      14.593714     -37830.867      0.0058934987   0.0061416778   0.016852817  
    273000   502.89315      16761.277     -39012.603      324.9552      -38687.648      79629.446      14.593714     -37854.599      0.0057583239   0.0066147344   0.018082118  
    274000   513.24502      17316.87      -39004.366      331.64429     -38672.722      79629.446      14.593714     -37812.06       0.0057870792   0.0061500378   0.01766134   
    275000   512.76678      17127.608     -39009.301      331.33526     -38677.965      79629.446      14.593714     -37826.71       0.0059695646   0.0060751794   0.016283088  
    276000   513.18831      17748.66      -39004.596      331.60764     -38672.988      79629.446      14.593714     -37790.866      0.0059914319   0.0062961493   0.018071248  
    277000   500.08363      18985.816     -38995.734      323.13977     -38672.594      79629.446      14.593714     -37728.984      0.0059182438   0.0063540995   0.018618713  
    278000   522.59005      17973.631     -39001.914      337.68278     -38664.231      79629.446      14.593714     -37770.927      0.0057736097   0.0063150833   0.01646627   
    279000   522.70118      17524.698     -39006.011      337.75459     -38668.257      79629.446      14.593714     -37797.265      0.0061712974   0.0060693208   0.017339959  
    280000   534.9192       18232.021     -38999.557      345.64952     -38653.908      79629.446      14.593714     -37747.762      0.0059063181   0.0070060054   0.017816832  
    281000   526.79436      17770.189     -39002.664      340.39948     -38662.265      79629.446      14.593714     -37779.072      0.0059173433   0.0062863419   0.016164982  
    282000   538.25258      19774.411     -38990.374      347.80346     -38642.571      79629.446      14.593714     -37659.767      0.006033301    0.0063881876   0.017343994  
    283000   535.11239      19422.996     -38994.814      345.77436     -38649.039      79629.446      14.593714     -37683.701      0.0061620253   0.0064298673   0.018629178  
    284000   534.62804      20548.337     -38984.607      345.46138     -38639.146      79629.446      14.593714     -37617.877      0.0060999499   0.0071265525   0.017015786  
    285000   547.07927      18871.709     -38994.6        353.50702     -38641.093      79629.446      14.593714     -37703.154      0.0059621561   0.006703433    0.016722532  
    286000   559.09209      19779.682     -38993.203      361.26935     -38631.933      79629.446      14.593714     -37648.867      0.0059066863   0.0065774964   0.017885447  
    287000   535.35966      19849.83      -38983.912      345.93414     -38637.978      79629.446      14.593714     -37651.426      0.0066245868   0.0069918718   0.018395767  
    288000   551.15939      20900.545     -38980.663      356.14347     -38624.52       79629.446      14.593714     -37585.746      0.0060619019   0.0073007623   0.016918433  
    289000   565.45884      21150.227     -38981.483      365.38337     -38616.1        79629.446      14.593714     -37564.917      0.0058426044   0.006536532    0.017704053  
    290000   551.94909      20740.119     -38984.712      356.65375     -38628.058      79629.446      14.593714     -37597.258      0.0061700998   0.0064844619   0.018378595  
    291000   562.37299      21624.432     -38979.373      363.38938     -38615.984      79629.446      14.593714     -37541.232      0.0062476458   0.0063409158   0.016567129  
    292000   568.94635      21323.768     -38980.51       367.63689     -38612.874      79629.446      14.593714     -37553.065      0.0058689112   0.0065567561   0.017410721  
    293000   560.88086      22051.598     -38975.45       362.4252      -38613.024      79629.446      14.593714     -37517.042      0.0061683956   0.0066949948   0.018012204  
    294000   565.0868       21921.38      -38974.555      365.14297     -38609.412      79629.446      14.593714     -37519.902      0.0067056568   0.0066075174   0.016735738  
    295000   575.58577      22317.058     -38970.347      371.9271      -38598.42       79629.446      14.593714     -37489.244      0.0066516127   0.0068050539   0.016926296  
    296000   569.85924      23154.698     -38973.291      368.22678     -38605.064      79629.446      14.593714     -37454.257      0.006089934    0.0068975701   0.018820521  
    297000   566.49277      23716.482     -38961.814      366.05146     -38595.762      79629.446      14.593714     -37417.034      0.0063181913   0.007171863    0.017099012  
    298000   585.59246      22611.494     -38968.093      378.39314     -38589.699      79629.446      14.593714     -37465.89       0.0064947672   0.006856547    0.016791215  
    299000   583.6746       22557.199     -38972.005      377.15387     -38594.852      79629.446      14.593714     -37473.741      0.006375363    0.0064239271   0.01809524   
    300000   588.33097      24633.548     -38956.341      380.16268     -38576.178      79629.446      14.593714     -37351.871      0.0060936316   0.0071690163   0.01804001   
    301000   583.12459      23207.903     -38966.582      376.79847     -38589.783      79629.446      14.593714     -37436.332      0.0066471022   0.0072962362   0.016047513  
    302000   591.05269      25350.35      -38958.066      381.92138     -38576.145      79629.446      14.593714     -37316.212      0.0068657561   0.0065943529   0.017566103  
    303000   599.10801      23471.301     -38967.658      387.1265      -38580.531      79629.446      14.593714     -37413.989      0.0061593081   0.0063781008   0.019162613  
    304000   587.99024      24123.75      -38960.049      379.94251     -38580.106      79629.446      14.593714     -37381.137      0.0064764685   0.0068002219   0.015361956  
    305000   601.09224      24542.409     -38955.904      388.40865     -38567.495      79629.446      14.593714     -37347.718      0.0066302478   0.0071567588   0.017072545  
    306000   605.13222      25235.962     -38955.989      391.01917     -38564.97       79629.446      14.593714     -37310.723      0.0063851655   0.0068242288   0.020599142  
    307000   602.96468      25405.204     -38955.514      389.61857     -38565.895      79629.446      14.593714     -37303.236      0.0060771519   0.0064333238   0.016203333  
    308000   616.01178      25013.589     -38952.616      398.04923     -38554.567      79629.446      14.593714     -37311.372      0.0067057281   0.0069629217   0.016844226  
    309000   599.97815      24755.991     -38954.372      387.68876     -38566.683      79629.446      14.593714     -37336.291      0.0072587944   0.007102291    0.019815075  
    310000   612.95187      25752.735     -38947.789      396.07201     -38551.717      79629.446      14.593714     -37271.786      0.0068633309   0.0067274767   0.017783936  
    311000   637.67677      25441.213     -38951.825      412.04853     -38539.777      79629.446      14.593714     -37275.328      0.0061796231   0.0069977476   0.016421028  
    312000   632.75432      26242.103     -38945.875      408.86779     -38537.008      79629.446      14.593714     -37232.754      0.0068260309   0.0074401556   0.018755772  
    313000   617.09979      25596.525     -38948.859      398.75228     -38550.106      79629.446      14.593714     -37277.939      0.0069791659   0.0067977567   0.019742751  
    314000   619.96638      26512.256     -38943.311      400.60458     -38542.706      79629.446      14.593714     -37225.026      0.0073905825   0.006799398    0.016781251  
    315000   631.98078      28347.061     -38928.901      408.36795     -38520.533      79629.446      14.593714     -37111.661      0.0070951544   0.0071034354   0.017817085  
    316000   628.40082      27478.023     -38938.846      406.05468     -38532.791      79629.446      14.593714     -37167.112      0.0073564552   0.00699076     0.019660261  
    317000   644.97098      27073.986     -38938.367      416.76184     -38521.605      79629.446      14.593714     -37176.007      0.006938331    0.007138444    0.017257005  
    318000   644.93618      27696.239     -38934.913      416.73936     -38518.173      79629.446      14.593714     -37141.648      0.0073246946   0.0069197992   0.017106773  
    319000   632.05373      26335.103     -38944.275      408.41509     -38535.86       79629.446      14.593714     -37226.985      0.0075802421   0.006954342    0.019296428  
    320000   641.33557      28798.772     -38929.092      414.41274     -38514.679      79629.446      14.593714     -37083.357      0.0070915968   0.007621758    0.017781218  
    321000   641.07735      27637.477     -38931.409      414.24589     -38517.163      79629.446      14.593714     -37143.558      0.0068249093   0.0071738538   0.017223853  
    322000   651.62834      29011.254     -38927.049      421.06364     -38505.985      79629.446      14.593714     -37064.103      0.0069995586   0.0073547412   0.018746574  
    323000   649.36886      29559.4       -38918.676      419.60363     -38499.072      79629.446      14.593714     -37029.946      0.0077597943   0.0078474223   0.019066439  
    324000   649.03057      29427.469     -38927.104      419.38504     -38507.719      79629.446      14.593714     -37045.151      0.0076983185   0.0071967255   0.017509669  
    325000   658.7395       29043.451     -38917.542      425.65867     -38491.883      79629.446      14.593714     -37048.401      0.0073229839   0.007758251    0.019074204  
    326000   668.58096      29385.317     -38918.168      432.01794     -38486.15       79629.446      14.593714     -37025.676      0.0070098751   0.0078339076   0.020078677  
    327000   661.06261      29734.938     -38915.532      427.1598      -38488.372      79629.446      14.593714     -37010.522      0.0075942715   0.0076987551   0.018425424  
    328000   657.82393      31158.041     -38912.646      425.06705     -38487.579      79629.446      14.593714     -36939          0.0081285678   0.0073501391   0.018399565  
    329000   666.71672      30186.763     -38920.88       430.81332     -38490.066      79629.446      14.593714     -36989.76       0.0072796532   0.0077144269   0.018280063  
    330000   665.67476      29679.703     -38919.108      430.14003     -38488.968      79629.446      14.593714     -37013.863      0.0069406943   0.0069984634   0.018523241  
    331000   673.66269      29935.43      -38914.743      435.30161     -38479.441      79629.446      14.593714     -36991.626      0.0073817141   0.0075975059   0.018263841  
    332000   679.08206      32854.591     -38898.249      438.80345     -38459.445      79629.446      14.593714     -36826.546      0.0082796355   0.0079108299   0.018107877  
    333000   681.65585      30514.96      -38915.208      440.46656     -38474.742      79629.446      14.593714     -36958.124      0.0074650938   0.0076452244   0.019083829  
    334000   684.63715      31921.554     -38903.261      442.39299     -38460.868      79629.446      14.593714     -36874.342      0.0072200891   0.0075989753   0.018647069  
    335000   686.22906      31626.34      -38903.861      443.42164     -38460.439      79629.446      14.593714     -36888.585      0.0072669327   0.0076290035   0.018733387  
    336000   674.80035      31451.856     -38904.781      436.03673     -38468.744      79629.446      14.593714     -36905.562      0.0078295173   0.0078175576   0.018664053  
    337000   693.78689      32272.95      -38899.361      448.30529     -38451.055      79629.446      14.593714     -36847.064      0.0074890923   0.0077422152   0.018862496  
    338000   694.34101      32587.858     -38892.672      448.66335     -38444.008      79629.446      14.593714     -36824.366      0.0070504974   0.0076729268   0.020167119  
    339000   696.61906      32237.24      -38900.583      450.13536     -38450.447      79629.446      14.593714     -36848.231      0.0071236095   0.008055054    0.018751945  
    340000   709.58137      33103.429     -38895.007      458.51123     -38436.496      79629.446      14.593714     -36791.229      0.0077826786   0.0082125181   0.018489859  
    341000   693.24898      32909.611     -38895.658      447.95771     -38447.7        79629.446      14.593714     -36812.066      0.0071571442   0.0076857449   0.019759268  
    342000   690.73793      33617.458     -38895.114      446.33514     -38448.779      79629.446      14.593714     -36777.965      0.0075964578   0.007489134    0.018439828  
    343000   715.80445      33403.371     -38893.758      462.53241     -38431.226      79629.446      14.593714     -36771.052      0.007364093    0.0078945848   0.018115276  
    344000   706.20113      33683.155     -38893.439      456.32702     -38437.112      79629.446      14.593714     -36763.032      0.0073578657   0.0076725322   0.019011434  
    345000   726.5874       34202.625     -38885.428      469.50004     -38415.928      79629.446      14.593714     -36716.03       0.0076707281   0.0072234908   0.018917824  
    346000   724.13024      34318.89      -38885.153      467.9123      -38417.241      79629.446      14.593714     -36711.565      0.007583671    0.0077508157   0.017914141  
    347000   711.90797      32922.228     -38893.335      460.01462     -38433.32       79629.446      14.593714     -36797.059      0.0070572009   0.0082210876   0.01796091   
    348000   707.38614      34468.304     -38881.888      457.09274     -38424.796      79629.446      14.593714     -36711.693      0.0069964881   0.0078781427   0.019312699  
    349000   723.09235      34422.739     -38884.195      467.24164     -38416.953      79629.446      14.593714     -36706.115      0.0076159825   0.0073888338   0.016987524  
    350000   720.1912       34342.468     -38877.901      465.367       -38412.534      79629.446      14.593714     -36705.686      0.007887128    0.0082543757   0.018476252  
    351000   731.36015      34658.094     -38880.637      472.58406     -38408.053      79629.446      14.593714     -36685.518      0.0074498031   0.0079974923   0.018401654  
    352000   724.82612      35043.172     -38874.019      468.36195     -38405.657      79629.446      14.593714     -36663.984      0.0074530721   0.0080788016   0.018356809  
    353000   734.34546      37251.892     -38869.07       474.51308     -38394.557      79629.446      14.593714     -36543.109      0.0078404887   0.0081831938   0.018778745  
    354000   755.31425      36284.845     -38868.492      488.06251     -38380.43       79629.446      14.593714     -36577.044      0.0075084064   0.0080202176   0.016376201  
    355000   749.1599       35932.25      -38878.386      484.08575     -38394.3        79629.446      14.593714     -36608.439      0.0072534272   0.008000457    0.018068581  
    356000   763.55849      36550.701     -38872.278      493.38971     -38378.888      79629.446      14.593714     -36562.29       0.0076257477   0.0075243017   0.01952092   
    357000   743.09875      35842.104     -38871.79       480.1692      -38391.621      79629.446      14.593714     -36610.24       0.0071853884   0.0081423517   0.017542573  
    358000   751.26211      35731.046     -38867.629      485.44414     -38382.184      79629.446      14.593714     -36606.323      0.0073294645   0.0082421833   0.018760592  
    359000   754.24776      37046.493     -38862.947      487.37338     -38375.574      79629.446      14.593714     -36534.334      0.0080423448   0.008105387    0.019424561  
    360000   771.32755      38139.042     -38855.653      498.40985     -38357.243      79629.446      14.593714     -36461.703      0.0079620601   0.0080727973   0.018745785  
    361000   760.70858      36401.671     -38873.11       491.54818     -38381.562      79629.446      14.593714     -36572.37       0.0073751315   0.0081298408   0.01812372   
    362000   763.21262      38036.586     -38858.742      493.16622     -38365.576      79629.446      14.593714     -36475.127      0.0076466723   0.0081708228   0.019391549  
    363000   762.45616      37393.882     -38865.878      492.67741     -38373.201      79629.446      14.593714     -36514.695      0.0076747756   0.007430965    0.020492998  
    364000   768.17969      38571.188     -38853.126      496.3758      -38356.75       79629.446      14.593714     -36439.731      0.0078703744   0.0082779744   0.018587545  
    365000   767.22118      38541.649     -38852.93       495.75644     -38357.174      79629.446      14.593714     -36441.623      0.0079600124   0.0080775493   0.01864276   
    366000   780.47939      39674.113     -38846.166      504.32351     -38341.842      79629.446      14.593714     -36370.007      0.0078064266   0.0081091727   0.020727604  
    367000   773.10654      38119.284     -38856.354      499.55939     -38356.795      79629.446      14.593714     -36462.236      0.0076115805   0.0077980404   0.019617118  
    368000   786.70146      39235.677     -38846.437      508.34404     -38338.093      79629.446      14.593714     -36388.049      0.007828036    0.008622646    0.018384053  
    369000   771.81044      38814.721     -38850.824      498.72188     -38352.102      79629.446      14.593714     -36422.98       0.0080645956   0.0082598346   0.019260476  
    370000   802.71872      38523.197     -38856.909      518.69393     -38338.215      79629.446      14.593714     -36423.582      0.0079191143   0.0080743288   0.020539792  
    371000   789.36693      40088.142     -38841.722      510.06638     -38331.656      79629.446      14.593714     -36339.243      0.0077166183   0.0085906379   0.01843208   
    372000   783.43596      39851.542     -38848.07       506.23396     -38341.836      79629.446      14.593714     -36361.183      0.0080257495   0.0089373096   0.018719363  
    373000   803.40553      40480.249     -38841.939      519.13773     -38322.801      79629.446      14.593714     -36310.9        0.0082618706   0.0081563284   0.02183584   
    374000   800.43052      40201.31      -38835.969      517.21536     -38318.754      79629.446      14.593714     -36320.717      0.007910323    0.0085514868   0.017854716  
    375000   801.05189      40890.299     -38836.398      517.61687     -38318.781      79629.446      14.593714     -36286.5        0.0087762997   0.0088663496   0.017798722  
    376000   791.9996       41792.503     -38828.399      511.76754     -38316.632      79629.446      14.593714     -36239.511      0.0082894734   0.008567036    0.021504791  
    377000   818.87105      41316.496     -38835.101      529.13111     -38305.97       79629.446      14.593714     -36252.507      0.0081218287   0.0082469806   0.019684223  
    378000   814.14161      41930.356     -38820.441      526.07508     -38294.366      79629.446      14.593714     -36210.394      0.0085343206   0.008591818    0.01769381   
    379000   818.91372      41296.14      -38830.811      529.15868     -38301.653      79629.446      14.593714     -36249.202      0.0088225097   0.0090173574   0.020201575  
    380000   806.58448      41600.654     -38830.637      521.19187     -38309.445      79629.446      14.593714     -36241.859      0.0088146722   0.0088089128   0.021178619  
    381000   833.601        41849.961     -38829.081      538.64918     -38290.432      79629.446      14.593714     -36210.456      0.0083651239   0.0088352261   0.018035378  
    382000   830.16306      42577.36      -38814.716      536.42768     -38278.288      79629.446      14.593714     -36162.159      0.0081160708   0.0091544981   0.01803947   
    383000   821.32664      43089.992     -38823.687      530.71784     -38292.969      79629.446      14.593714     -36151.362      0.0087575913   0.0086686716   0.022021254  
    384000   825.71902      43173.468     -38816.706      533.55607     -38283.15       79629.446      14.593714     -36137.394      0.0089405631   0.0084364873   0.019280124  
    385000   825.43273      42881.022     -38817.993      533.37107     -38284.622      79629.446      14.593714     -36153.402      0.0079979056   0.008895837    0.016431578  
    386000   826.07453      44277.546     -38811.441      533.78579     -38277.655      79629.446      14.593714     -36077.026      0.0083501917   0.0088270235   0.020588838  
    387000   834.76307      43357.274     -38819.182      539.40007     -38279.782      79629.446      14.593714     -36124.891      0.0080637848   0.0084555001   0.02082298   
    388000   844.49422      43176.08      -38812.449      545.68807     -38266.761      79629.446      14.593714     -36120.876      0.0084973105   0.0088084267   0.015395907  
    389000   845.81087      43079.028     -38819.802      546.53885     -38273.263      79629.446      14.593714     -36132.201      0.008148017    0.0087331607   0.020099052  
    390000   838.42868      44373.194     -38810.692      541.76869     -38268.923      79629.446      14.593714     -36063.54       0.0085276275   0.0090780665   0.023271692  
    391000   853.94278      43724.715     -38805.457      551.79346     -38253.664      79629.446      14.593714     -36080.51       0.0087519072   0.0091920144   0.016897893  
    392000   847.59277      43712.624     -38804.818      547.69026     -38257.128      79629.446      14.593714     -36084.576      0.0083391997   0.0092597251   0.018363695  
    393000   863.80589      44684.963     -38802.389      558.16672     -38244.222      79629.446      14.593714     -36023.344      0.0085674513   0.0093840217   0.025688061  
    394000   846.22832      43969.713     -38805.364      546.8086      -38258.556      79629.446      14.593714     -36073.226      0.0085926193   0.0096038878   0.019189059  
    395000   870.18249      44301.225     -38810.271      562.2871      -38247.984      79629.446      14.593714     -36046.178      0.0083434728   0.0089663343   0.016398019  
    396000   841.53497      44226.145     -38795.596      543.77588     -38251.82       79629.446      14.593714     -36053.746      0.0083269086   0.0091275186   0.023859307  
    397000   865.50306      44145.353     -38802.039      559.26338     -38242.775      79629.446      14.593714     -36048.716      0.0082477029   0.0090580994   0.021026132  
    398000   860.04504      46552.114     -38791.472      555.73656     -38235.736      79629.446      14.593714     -35922.059      0.0084505396   0.0094569688   0.016482384  
    399000   851.51955      44286.462     -38803.673      550.22764     -38253.446      79629.446      14.593714     -36052.373      0.0086659606   0.0093586418   0.020151198  
    400000   861.14416      47271.257     -38781.116      556.44678     -38224.669      79629.446      14.593714     -35875.25       0.0087504946   0.0097088852   0.025650097  
    401000   871.85797      45256.21      -38794.758      563.36974     -38231.388      79629.446      14.593714     -35982.119      0.0086493425   0.0088231182   0.0180781    
    402000   884.09425      46196.153     -38796.108      571.27647     -38224.831      79629.446      14.593714     -35928.846      0.0088317013   0.0090191439   0.016667778  
    403000   886.65548      46161.183     -38790.683      572.93147     -38217.752      79629.446      14.593714     -35923.504      0.0087465103   0.0094771142   0.025794372  
    404000   872.94508      45336.522     -38797.192      564.0722      -38233.12       79629.446      14.593714     -35979.859      0.008840109    0.0087644194   0.018871833  
    405000   878.59321      47480.89      -38783.349      567.72186     -38215.627      79629.446      14.593714     -35855.789      0.0095017169   0.0091601367   0.015602131  
    406000   883.86253      48229.444     -38779.549      571.12675     -38208.422      79629.446      14.593714     -35811.38       0.0086221202   0.0096510263   0.024283812  
    407000   889.00783      47679.766     -38779.085      574.45149     -38204.633      79629.446      14.593714     -35834.911      0.0084779808   0.010297629    0.021190778  
    408000   876.17808      47067.367     -38786.379      566.16128     -38220.218      79629.446      14.593714     -35880.933      0.0087817216   0.0088915892   0.016299116  
    409000   898.11534      46977.736     -38782.583      580.33651     -38202.247      79629.446      14.593714     -35867.416      0.0092918091   0.0090353739   0.021359661  
    410000   897.53551      49511.352     -38758.837      579.96184     -38178.875      79629.446      14.593714     -35718.122      0.010070339    0.010172587    0.023652979  
    411000   901.92547      47910.43      -38777.278      582.7985      -38194.48       79629.446      14.593714     -35813.293      0.0091789231   0.00953631     0.016985737  
    412000   879.55586      47269.42      -38778.575      568.3439      -38210.231      79629.446      14.593714     -35860.904      0.0087450117   0.0091886517   0.018666024  
    413000   923.29098      48571.926     -38773.283      596.60428     -38176.679      79629.446      14.593714     -35762.616      0.0092941367   0.0090194803   0.023891906  
    414000   938.19054      49073.634     -38771.122      606.23195     -38164.89       79629.446      14.593714     -35725.891      0.0090701383   0.010032838    0.019377787  
    415000   928.7542       46951.764     -38781.731      600.13446     -38181.596      79629.446      14.593714     -35848.056      0.0092554606   0.0091921939   0.017091291  
    416000   926.70413      49233.016     -38766.945      598.80976     -38168.135      79629.446      14.593714     -35721.215      0.0088584727   0.0094635183   0.02328921   
    417000   925.57573      48731.477     -38769.93       598.08062     -38171.849      79629.446      14.593714     -35749.856      0.0085136414   0.0094215595   0.022857186  
    418000   924.91427      49164.503     -38764.401      597.65321     -38166.748      79629.446      14.593714     -35723.233      0.0092951771   0.01008519     0.017261262  
    419000   922.43237      51015.219     -38752.337      596.04948     -38156.287      79629.446      14.593714     -35620.79       0.010215673    0.0097233478   0.020936075  
    420000   935.00416      48862.321     -38762.413      604.17301     -38158.24       79629.446      14.593714     -35729.744      0.010152243    0.0096672693   0.024116515  
    421000   924.35271      50330.948     -38755.857      597.29034     -38158.566      79629.446      14.593714     -35657.078      0.0092614662   0.010099992    0.019280914  
    422000   930.43515      50360.133     -38755.365      601.22064     -38154.144      79629.446      14.593714     -35651.205      0.0095180656   0.0095875829   0.018822105  
    423000   939.95398      52010.794     -38736.635      607.37144     -38129.263      79629.446      14.593714     -35544.285      0.010019391    0.0095744994   0.024064177  
    424000   937.675        50940.765     -38750.597      605.89883     -38144.699      79629.446      14.593714     -35612.902      0.0108717      0.0094931387   0.019890165  
[...]
   3096000   5919.6447      336068.07     -32417.96       3825.1055     -28592.855      79629.446      14.593714     -11890.004      1288.4267      1318.0279      1216.6069    
   3097000   5962.1235      329681.97     -32461.904      3852.5541     -28609.35       79629.446      14.593714     -12223.894      1291.8854      1320.4511      1218.6433    
   3098000   6083.1153      330532.17     -32508.451      3930.7355     -28577.716      79629.446      14.593714     -12150.004      1292.8725      1321.7114      1220.5853    
   3099000   5972.1513      329644.38     -32499.242      3859.0338     -28640.209      79629.446      14.593714     -12256.621      1294.3422      1323.0594      1221.437     
   3100000   6113.436       332511.56     -32478.755      3950.3279     -28528.427      79629.446      14.593714     -12002.338      1295.178       1325.142       1225.3273    
   3101000   6014.7235      331959.01     -32524.948      3886.5427     -28638.405      79629.446      14.593714     -12139.778      1295.6584      1327.9405      1226.4889    
   3102000   5894.3246      334010.58     -32478.565      3808.7444     -28669.821      79629.446      14.593714     -12069.229      1298.1625      1329.2395      1227.0301    
   3103000   5961.9334      333347.23     -32493.521      3852.4312     -28641.09       79629.446      14.593714     -12073.467      1299.4895      1327.2399      1229.1297    
   3104000   5958.8555      333581.23     -32530.098      3850.4424     -28679.656      79629.446      14.593714     -12100.403      1302.8918      1327.6394      1231.9865    
   3105000   6069.8058      335834.66     -32343.673      3922.1353     -28421.537      79629.446      14.593714     -11730.287      1307.1495      1327.2636      1232.4233    
   3106000   6031.7355      333751.41     -32392.025      3897.5353     -28494.49       79629.446      14.593714     -11906.779      1308.0188      1326.5256      1232.609     
   3107000   5935.1559      330559.2      -32503.849      3835.1284     -28668.72       79629.446      14.593714     -12239.665      1311.2966      1326.11        1233.413     
   3108000   6045.1751      334053.69     -32480.94       3906.2197     -28574.721      79629.446      14.593714     -11971.987      1313.6852      1324.6584      1235.0424    
   3109000   6013.2383      333478.26     -32475.706      3885.583      -28590.123      79629.446      14.593714     -12015.988      1315.8212      1329.7153      1237.1461    
   3110000   5913.8063      333297.65     -32436.36       3821.3329     -28615.027      79629.446      14.593714     -12049.868      1316.5993      1330.268       1238.7188    
   3111000   6057.7821      332292.34     -32530.653      3914.366      -28616.287      79629.446      14.593714     -12101.094      1319.9366      1333.2549      1238.612     
   3112000   5976.6017      329306.62     -32585.609      3861.9095     -28723.7        79629.446      14.593714     -12356.898      1322.6412      1333.5764      1240.1616    
   3113000   5966.3672      336031.53     -32367.258      3855.2962     -28511.962      79629.446      14.593714     -11810.927      1321.2866      1333.845       1239.8511    
   3114000   6011.3016      336691.32     -32361.403      3884.3315     -28477.071      79629.446      14.593714     -11743.245      1323.453       1334.1608      1241.1365    
   3115000   5920.5522      330582.07     -32448.129      3825.6919     -28622.437      79629.446      14.593714     -12192.245      1325.3314      1333.1104      1239.8803    
   3116000   5993.7231      333417.13     -32481.292      3872.9728     -28608.319      79629.446      14.593714     -12037.223      1329.8104      1335.1851      1241.1608    
   3117000   6054.7031      335705.76     -32374.062      3912.3764     -28461.685      79629.446      14.593714     -11776.842      1332.617       1333.9724      1241.3188    
   3118000   5904.6276      329498.34     -32510.348      3815.4018     -28694.946      79629.446      14.593714     -12318.616      1332.2044      1335.4048      1243.6501    
   3119000   5988.8134      333632.23     -32496.877      3869.8003     -28627.077      79629.446      14.593714     -12045.29       1333.3712      1336.2618      1245.1905    
   3120000   6154.5882      335273.91     -32435.314      3976.9193     -28458.395      79629.446      14.593714     -11795.015      1336.6011      1338.5385      1245.1377    
   3121000   6011.6596      335403.93     -32458.122      3884.5629     -28573.559      79629.446      14.593714     -11903.717      1338.7392      1340.3448      1246.0121    
   3122000   6174.4553      334868.18     -32540.924      3989.7568     -28551.168      79629.446      14.593714     -11907.953      1341.2512      1338.8112      1247.7408    
   3123000   6015.9572      337685.94     -32458.216      3887.3399     -28570.876      79629.446      14.593714     -11787.616      1343.4036      1339.9158      1250.3046    
   3124000   6068.6006      333777.1      -32438.952      3921.3565     -28517.596      79629.446      14.593714     -11928.608      1342.7539      1342.0667      1252.1687    
   3125000   5995.7878      330721.89     -32498.984      3874.307      -28624.677      79629.446      14.593714     -12187.536      1344.1619      1345.1303      1251.7874    
   3126000   5988.4202      334806.82     -32373.512      3869.5463     -28503.966      79629.446      14.593714     -11863.801      1345.6238      1346.1804      1253.5717    
   3127000   6063.755       331253.47     -32490.166      3918.2255     -28571.94       79629.446      14.593714     -12108.379      1344.7034      1348.3139      1256.6397    
   3128000   5952.073       330157.97     -32485.739      3846.0597     -28639.679      79629.446      14.593714     -12230.566      1347.0968      1349.1745      1256.6417    
   3129000   6086.4479      331227.7      -32453.782      3932.889      -28520.893      79629.446      14.593714     -12058.613      1348.142       1351.4018      1258.0004    
   3130000   6091.7931      336245.42     -32441.953      3936.3429     -28505.61       79629.446      14.593714     -11793.945      1349.4138      1354.1206      1259.0818    
   3131000   6077.0927      333764.75     -32491.827      3926.8439     -28564.983      79629.446      14.593714     -11976.61       1351.3944      1354.5205      1259.6908    
   3132000   5962.8285      333572.86     -32439.114      3853.0096     -28586.105      79629.446      14.593714     -12007.269      1355.3143      1358.2184      1260.9158    
   3133000   6132.4388      333837.13     -32413.414      3962.607      -28450.807      79629.446      14.593714     -11858.836      1356.3885      1358.4423      1260.9933    
   3134000   5975.2461      330668.94     -32540.216      3861.0336     -28679.183      79629.446      14.593714     -12244.673      1354.3711      1359.5745      1262.2311    
   3135000   5933.8065      332709.25     -32518.849      3834.2564     -28684.593      79629.446      14.593714     -12148.678      1355.3797      1360.0308      1262.2406    
   3136000   5938.4453      335131.67     -32406.971      3837.2539     -28569.717      79629.446      14.593714     -11913.406      1356.9503      1360.5728      1262.7288    
   3137000   5927.5119      332803.51     -32505.16       3830.189      -28674.971      79629.446      14.593714     -12134.372      1357.0267      1364.0586      1264.5328    
   3138000   6014.0168      330613.44     -32497.698      3886.086      -28611.612      79629.446      14.593714     -12179.861      1359.2713      1363.942       1267.1894    
   3139000   5946.1336      331913.5      -32505.765      3842.2218     -28663.544      79629.446      14.593714     -12167.179      1362.3678      1366.0836      1267.8257    
   3140000   6067.5744      336006.35     -32396.784      3920.6935     -28476.091      79629.446      14.593714     -11776.308      1364.226       1366.9766      1269.2603    
   3141000   6153.0973      327299        -32577.321      3975.9559     -28601.365      79629.446      14.593714     -12334.344      1366.3628      1367.5829      1270.7772    
   3142000   5941.952       331366.14     -32416.294      3839.5198     -28576.774      79629.446      14.593714     -12107.614      1367.5246      1367.9962      1271.8278    
   3143000   5971.4889      331817.79     -32438.891      3858.6058     -28580.285      79629.446      14.593714     -12088.677      1370.5325      1369.4509      1274.9548    
   3144000   5927.8442      330741.91     -32501.881      3830.4038     -28671.478      79629.446      14.593714     -12233.342      1372.2593      1370.81        1275.4274    
   3145000   5933.8738      336518.43     -32360.009      3834.2999     -28525.709      79629.446      14.593714     -11800.475      1375.4018      1371.3761      1275.7672    
   3146000   5987.5494      329655.74     -32425.342      3868.9836     -28556.358      79629.446      14.593714     -12172.206      1376.0514      1372.8529      1275.734     
   3147000   6215.6344      337814.01     -32412.434      4016.3656     -28396.069      79629.446      14.593714     -11606.444      1378.4405      1374.4395      1275.1763    
   3148000   5997.8835      332460.53     -32443.115      3875.6611     -28567.454      79629.446      14.593714     -12043.901      1380.068       1374.9924      1276.8112    
   3149000   6018.6502      329611.92     -32497.407      3889.08       -28608.327      79629.446      14.593714     -12226.352      1380.7501      1376.1664      1276.1992    
   3150000   5974.4793      334201.84     -32451.346      3860.538      -28590.808      79629.446      14.593714     -11980.71       1384.2914      1376.1418      1278.8178    
   3151000   6059.0059      332227.17     -32448.756      3915.1567     -28533.599      79629.446      14.593714     -12021.644      1384.7221      1376.4653      1280.199     
   3152000   6012.141       328927.45     -32579.409      3884.8739     -28694.535      79629.446      14.593714     -12346.579      1387.0873      1378.4623      1282.2889    
   3153000   6075.2911      331205.39     -32469.924      3925.6798     -28544.245      79629.446      14.593714     -12083.073      1389.8693      1378.2859      1282.9457    
   3154000   6010.2699      331620.03     -32485.688      3883.6649     -28602.023      79629.446      14.593714     -12120.244      1387.9448      1380.4491      1284.5923    
   3155000   5972.4946      331659.87     -32507.613      3859.2556     -28648.357      79629.446      14.593714     -12164.598      1388.3923      1382.7689      1287.3727    
   3156000   5912.9801      329454.41     -32527.666      3820.799      -28706.867      79629.446      14.593714     -12332.72       1389.3007      1386.0946      1286.4854    
   3157000   6017.1488      330409.13     -32447.201      3888.1098     -28559.091      79629.446      14.593714     -12137.494      1392.0005      1389.7142      1287.3552    
   3158000   6036.3858      334634.49     -32452.824      3900.5403     -28552.284      79629.446      14.593714     -11920.684      1395.8646      1393.1624      1289.7781    
   3159000   6018.016       334073.52     -32440.002      3888.6702     -28551.332      79629.446      14.593714     -11947.612      1399.7301      1394.0744      1289.3463    
   3160000   5938.196       330786.5      -32545.042      3837.0928     -28707.949      79629.446      14.593714     -12267.597      1400.0502      1394.9647      1290.3429    
   3161000   6051.7456      330144.55     -32526.009      3910.4653     -28615.543      79629.446      14.593714     -12207.096      1402.5273      1395.9267      1292.0719    
   3162000   6129.7169      334946.94     -32449.45       3960.8481     -28488.602      79629.446      14.593714     -11841.473      1404.8439      1395.9959      1294.2397    
   3163000   5968.6626      328400.53     -32553.716      3856.7794     -28696.937      79629.446      14.593714     -12375.169      1407.0425      1395.122       1297.1484    
   3164000   5985.4103      331421.78     -32464.578      3867.6014     -28596.976      79629.446      14.593714     -12125.05       1408.7702      1396.3403      1299.196     
   3165000   6009.9925      333438.79     -32463.507      3883.4856     -28580.021      79629.446      14.593714     -12007.848      1411.9333      1394.514       1299.989     
   3166000   6047.1688      335486.83     -32451.371      3907.5079     -28543.863      79629.446      14.593714     -11869.901      1414.5565      1396.2516      1302.0079    
   3167000   6012.0238      335428        -32387.877      3884.7982     -28503.079      79629.446      14.593714     -11832.04       1415.9831      1396.2073      1302.6508    
   3168000   5889.9602      334685.53     -32429.216      3805.9242     -28623.292      79629.446      14.593714     -11989.155      1422.689       1398.9205      1303.9022    
   3169000   5912.3251      334618.78     -32379.344      3820.3758     -28558.969      79629.446      14.593714     -11928.149      1425.7701      1402.1947      1304.6172    
   3170000   6038.9584      334281.93     -32412.476      3902.2026     -28510.273      79629.446      14.593714     -11896.195      1429.0307      1403.5844      1307.7008    
   3171000   5971.3953      330848.36     -32454.48       3858.5453     -28595.935      79629.446      14.593714     -12152.508      1427.8395      1407.6673      1310.185     
   3172000   5966.3252      333897.51     -32461.918      3855.2691     -28606.649      79629.446      14.593714     -12011.677      1427.9274      1407.574       1311.0764    
   3173000   6024.4496      334539.08     -32438.24       3892.8275     -28545.413      79629.446      14.593714     -11918.555      1428.9389      1409.8131      1311.9716    
   3174000   5909.3901      330632.34     -32433.385      3818.4793     -28614.906      79629.446      14.593714     -12182.215      1428.8009      1412.5445      1312.5537    
   3175000   5996.6885      336254.93     -32428.22       3874.889      -28553.331      79629.446      14.593714     -11841.193      1427.2725      1415.7521      1311.7875    
   3176000   5930.7529      330777.55     -32520.803      3832.2833     -28688.519      79629.446      14.593714     -12248.612      1426.2905      1414.6149      1312.5315    
   3177000   5955.168       329878.2      -32496.495      3848.0597     -28648.436      79629.446      14.593714     -12253.227      1426.8384      1416.6293      1313.9201    
   3178000   6059.3854      329142.46     -32527.574      3915.4019     -28612.172      79629.446      14.593714     -12253.53       1427.6653      1418.1856      1315.2316    
   3179000   6050.5967      332794.13     -32464.231      3909.7229     -28554.508      79629.446      14.593714     -12014.375      1427.3305      1420.9819      1317.0947    
   3180000   6121.698       331521.61     -32486.35       3955.6666     -28530.683      79629.446      14.593714     -12053.795      1428.633       1422.169       1318.7159    
   3181000   6100.634       335708.14     -32414.436      3942.0556     -28472.381      79629.446      14.593714     -11787.419      1428.8237      1422.781       1320.1671    
   3182000   5971.1134      336014.09     -32472.809      3858.3631     -28614.446      79629.446      14.593714     -11914.278      1429.2615      1424.8882      1319.9772    
   3183000   5934.7904      331447.57     -32400.534      3834.8922     -28565.642      79629.446      14.593714     -12092.434      1431.7368      1428.1636      1321.3072    
   3184000   6083.6798      333008.96     -32414.593      3931.1003     -28483.493      79629.446      14.593714     -11932.683      1433.9106      1428.5254      1323.7288    
   3185000   5972.0655      333247.9      -32467.26       3858.9783     -28608.281      79629.446      14.593714     -12045.596      1436.1733      1426.3462      1324.505     
   3186000   5990.1164      334117.38     -32428.173      3870.6423     -28557.53       79629.446      14.593714     -11951.631      1437.7832      1426.4955      1326.5077    
   3187000   5993.5898      333345.64     -32463.097      3872.8867     -28590.21       79629.446      14.593714     -12022.667      1436.2827      1429.715       1327.6367    
   3188000   6041.3582      331267.73     -32495.016      3903.7533     -28591.263      79629.446      14.593714     -12126.993      1436.4791      1431.5144      1328.7447    
   3189000   6035.7605      332469.42     -32525.895      3900.1362     -28625.758      79629.446      14.593714     -12101.764      1435.1989      1433.2342      1329.283     
   3190000   6053.5452      332542.11     -32474.735      3911.6282     -28563.106      79629.446      14.593714     -12035.499      1436.1196      1435.0889      1331.402     
   3191000   5905.9726      334832.23     -32475.078      3816.2709     -28658.807      79629.446      14.593714     -12017.379      1435.5951      1436.8437      1330.9451    
   3192000   5978.7901      335864.58     -32449.346      3863.3236     -28586.022      79629.446      14.593714     -11893.285      1435.2239      1441.9463      1332.8593    
   3193000   6057.5073      331029.62     -32585.897      3914.1883     -28671.709      79629.446      14.593714     -12219.274      1435.1413      1443.3686      1333.3778    
   3194000   6103.2393      330179.11     -32553.477      3943.7391     -28609.738      79629.446      14.593714     -12199.574      1437.6296      1446.9001      1335.5499    
   3195000   5986.3401      332202.28     -32408.267      3868.2022     -28540.064      79629.446      14.593714     -12029.347      1438.3383      1449.573       1336.1613    
   3196000   6025.9728      333672.64     -32385.774      3893.8116     -28491.962      79629.446      14.593714     -11908.167      1440.7462      1450.9029      1339.7908    
   3197000   5953.4466      332234.29     -32460.596      3846.9473     -28613.649      79629.446      14.593714     -12101.341      1443.6605      1453.9794      1340.5199    
   3198000   5973.3456      333438.23     -32572.808      3859.8055     -28713.003      79629.446      14.593714     -12140.857      1444.4403      1455.3812      1341.6826    
   3199000   6014.2463      334742.48     -32396.606      3886.2343     -28510.371      79629.446      14.593714     -11873.404      1448.4525      1456.6412      1342.7622    
   3200000   5995.578       330001.56     -32528.166      3874.1714     -28653.995      79629.446      14.593714     -12252.655      1452.2504      1458.4284      1342.7089    
Loop time of 639.784 on 40 procs for 1000000 steps with 5000 atoms

Performance: 135.045 ns/day, 0.178 hours/ns, 1563.027 timesteps/s, 7.815 Matom-step/s
93.9% CPU use with 40 MPI tasks x 1 OpenMP threads

MPI task timing breakdown:
Section |  min time  |  avg time  |  max time  |%varavg| %total
---------------------------------------------------------------
Pair    | 415.25     | 421.01     | 427.04     |  11.4 | 65.81
Neigh   | 7.5191     | 7.6119     | 7.6993     |   1.6 |  1.19
Comm    | 158.91     | 164.22     | 169.7      |  17.8 | 25.67
Output  | 0.43625    | 0.59077    | 0.78881    |  12.7 |  0.09
Modify  | 25.572     | 27.942     | 30.31      |  20.8 |  4.37
Other   |            | 18.4       |            |       |  2.88

Nlocal:            125 ave         132 max         117 min
Histogram: 2 1 2 1 9 6 11 4 3 1
Nghost:        1189.45 ave        1206 max        1180 min
Histogram: 7 7 2 7 4 6 3 2 0 2
Neighs:        6331.48 ave        6929 max        5930 min
Histogram: 3 3 5 8 10 6 3 1 0 1

Total # of neighbors = 253259
Ave neighs/atom = 50.6518
Neighbor list builds = 29269
Dangerous builds = 0
	unfix           fholdhigh

write_data	liquid.data nocoeff
System init for write_data ...





Total wall time: 0:30:54
