

# Styles
	units        metal
	atom_style   atomic
	pair_style   eam/fs

# Neighbour list
	neighbor        2.0 bin
	neigh_modify    check yes


# Boundary conditions
	boundary p p p


# ----------------- Atom Definition Section -----------------

read_data "solid.data"
Reading data file ...
  orthogonal box = (-0.016319894 -0.026116788 -0.077393605) to (31.66632 31.676117 79.202394)
  2 by 2 by 10 MPI processor grid
  reading atom labelmap ...
  reading atoms ...
  5000 atoms
  reading velocities ...
  5000 velocities
  read_data CPU = 0.071 seconds

read_data "liquid.data" add append shift 37 0 0
Reading data file ...
WARNING: Non-zero image flags with growing box leads to bad coordinates (src/read_data.cpp:589)
  orthogonal box = (-0.016319894 -0.026116788 -0.077393605) to (68.66632 31.676117 79.202394)
  4 by 2 by 5 MPI processor grid
  reading atom labelmap ...
  reading atoms ...
  5000 atoms
  reading velocities ...
  5000 velocities
  read_data CPU = 0.047 seconds

# ----------------- Settings Section -----------------

include "coexistence.in.settings"
# ----- SETTINGS -----
# Forcefield
	pair_coeff * * W-Mo.eam.fs W Mo

# Collection of atoms
	group alloy type  1 2
10000 atoms in group alloy


# ----------------- Run Section -----------------

include "coexistence.in.run"
# Thermo output
	compute msd all msd

	thermo          1000
	thermo_style    custom step temp press pe ke etotal vol density enthalpy c_msd[1] c_msd[2] c_msd[3]
	thermo_modify   flush yes

# Dump configuration
	dump            d1 all custom 25000 coexistence_W-Mo.dump id type element x y z xu yu zu vx vy vz
	dump_modify     d1 element W Mo


# ----- EQUILIBRATION AT Ti -----
	minimize 1e-25 1e-25 5000 10000
Neighbor list info ...
  update: every = 1 steps, delay = 0 steps, check = yes
  max neighbors/atom: 2000, page size: 100000
  master list distance cutoff = 7.3
  ghost atom cutoff = 7.3
  binsize = 3.65, bins = 19 9 22
  1 neighbor lists, perpetual/occasional/extra = 1 0 0
  (1) pair eam/fs, perpetual
      attributes: half, newton on
      pair build: half/bin/atomonly/newton
      stencil: half/bin/3d
      bin: standard
Per MPI rank memory allocation (min/avg/max) = 4.855 | 4.862 | 4.87 Mbytes
   Step          Temp          Press          PotEng         KinEng         TotEng         Volume        Density        Enthalpy       c_msd[1]       c_msd[2]       c_msd[3]   
         0   3147.3145      737794.18     -12116.362      4067.8164     -8048.5456      172623.26      13.463879      71443.593      0              0              0            
      1000   3147.3145      10128.626     -76235.047      4067.8164     -72167.23       172623.26      13.463879     -71075.942      0.54472029     0.202136       0.20734378   
      2000   3147.3145     -180.17847     -76281.213      4067.8164     -72213.397      172623.26      13.463879     -72232.81       0.70364905     0.21621516     0.21542002   
      2307   3147.3145     -272.33714     -76281.705      4067.8164     -72213.888      172623.26      13.463879     -72243.231      0.70611361     0.21605454     0.21504173   
Loop time of 3.96229 on 40 procs for 2307 steps with 10000 atoms

95.7% CPU use with 40 MPI tasks x 1 OpenMP threads

Minimization stats:
  Stopping criterion = energy tolerance
  Energy initial, next-to-last, final = 
       -12116.36204945   -76281.704776988   -76281.704776988
  Force two-norm initial, final = 224306.09 4.4897918e-05
  Force max component initial, final = 94125.607 1.3486957e-05
  Final line search alpha, max atom move = 1 1.3486957e-05
  Iterations, force evaluations = 2307 4350

MPI task timing breakdown:
Section |  min time  |  avg time  |  max time  |%varavg| %total
---------------------------------------------------------------
Pair    | 2.5931     | 2.7789     | 3.0813     |   8.8 | 70.13
Neigh   | 0.020466   | 0.023169   | 0.026795   |   1.3 |  0.58
Comm    | 0.58705    | 0.84849    | 1.0272     |  13.4 | 21.41
Output  | 0.00018372 | 0.00021906 | 0.0014762  |   0.0 |  0.01
Modify  | 0          | 0          | 0          |   0.0 |  0.00
Other   |            | 0.3115     |            |       |  7.86

Nlocal:            250 ave         278 max         230 min
Histogram: 4 8 5 5 8 0 0 1 4 5
Nghost:        1459.78 ave        1553 max        1344 min
Histogram: 6 4 0 6 4 0 0 2 12 6
Neighs:        12457.9 ave       15369 max       10337 min
Histogram: 8 2 2 15 3 0 0 0 4 6

Total # of neighbors = 498316
Ave neighs/atom = 49.8316
Neighbor list builds = 48
Dangerous builds = 0

	fix             feq all npt temp ${Ti} ${Ti} ${tdamp} aniso ${press} ${press} ${pdamp}
	fix             feq all npt temp 4500 ${Ti} ${tdamp} aniso ${press} ${press} ${pdamp}
	fix             feq all npt temp 4500 4500 ${tdamp} aniso ${press} ${press} ${pdamp}
	fix             feq all npt temp 4500 4500 0.1 aniso ${press} ${press} ${pdamp}
	fix             feq all npt temp 4500 4500 0.1 aniso 1 ${press} ${pdamp}
	fix             feq all npt temp 4500 4500 0.1 aniso 1 1 ${pdamp}
	fix             feq all npt temp 4500 4500 0.1 aniso 1 1 1
	run             1000000    # 1 ns
Per MPI rank memory allocation (min/avg/max) = 5.007 | 5.013 | 5.021 Mbytes
   Step          Temp          Press          PotEng         KinEng         TotEng         Volume        Density        Enthalpy       c_msd[1]       c_msd[2]       c_msd[3]   
      2307   3147.3145     -272.33714     -76281.705      4067.8164     -72213.888      172623.26      13.463879     -72243.231      0.70611361     0.21605454     0.21504173   
      3000   2961.6845     -3873.2036     -71635.421      3827.8949     -67807.526      178487.04      13.021554     -68239.012      2.8807151      0.50167561     0.49463113   
      4000   4475.693       1601.9561     -67504.949      5784.7088     -61720.24       192096.45      12.099019     -61528.17       20.521565      2.5269391      2.618583     
      5000   4531.9357     -695.12597     -67504.328      5857.4008     -61646.927      192369.24      12.081863     -61730.389      33.174783      4.1111207      4.1652413    
      6000   4494.3014      162.7827      -67979.887      5808.7596     -62171.127      188455.67      12.332761     -62151.98       22.250389      5.8242754      5.7570095    
      7000   4408.6392      808.37524     -68098.438      5698.0435     -62400.395      186766.44      12.444306     -62306.162      15.584658      7.4546355      7.216448     
      8000   4558.3703     -1578.0842     -68053.905      5891.5669     -62162.338      186359.95      12.471449     -62345.895      14.067435      9.0021266      8.6039328    
      9000   4512.0164      5687.4107     -68226.471      5831.6557     -62394.815      184463.84      12.599644     -61740.005      12.363004      10.219985      9.6122272    
     10000   4530.4331      652.86733     -68225.202      5855.4588     -62369.743      184586.62      12.591264     -62294.527      11.761182      11.562424      10.79949     
     11000   4555.041       1630.7986     -68234.379      5887.2638     -62347.116      183949.4       12.634881     -62159.88       10.938022      12.931161      12.142808    
     12000   4485.0422      1971.4848     -68252.013      5796.7924     -62455.221      183972.94      12.633264     -62228.841      11.408762      13.910477      12.850075    
     13000   4495.5514     -2920.226      -68150.236      5810.3752     -62339.861      184321.4       12.609381     -62675.817      12.301518      14.246635      14.6526      
     14000   4505.1935      853.64315     -68058.518      5822.8373     -62235.681      183693.78      12.652463     -62137.809      12.979647      14.982646      15.323963    
     15000   4489.8556      4489.9646     -68146.181      5803.0135     -62343.168      183174.93      12.688301     -61829.835      13.118012      16.148984      16.039777    
     16000   4449.2552      2921.8951     -68076.87       5750.5386     -62326.331      183137.54      12.690892     -61992.342      13.709184      17.009742      16.922748    
     17000   4478.4186     -173.72571     -67917.698      5788.2315     -62129.467      183789.33      12.645885     -62149.395      14.153424      17.969369      18.490696    
     18000   4411.221      -467.38227     -67893.779      5701.3805     -62192.399      184083.43      12.625682     -62246.099      14.902098      18.303662      20.268626    
     19000   4480.7525     -3315.7608     -67885.335      5791.2481     -62094.087      184189.97      12.618379     -62475.274      16.097716      18.846984      20.418598    
     20000   4482.7944      456.05742     -67803.114      5793.8871     -62009.227      184429.36      12.601999     -61956.729      16.836362      20.450882      20.325632    
     21000   4537.5428     -2064.0476     -67780.328      5864.6478     -61915.68       184700.26      12.583516     -62153.625      18.19162       21.152074      20.905257    
     22000   4421.6387     -1040.2085     -67550.361      5714.8451     -61835.516      184944.12      12.566924     -61955.591      18.786683      22.873894      21.097385    
     23000   4505.7972     -478.95115     -67441.91       5823.6176     -61618.293      185085.31      12.557338     -61673.622      19.730272      22.658413      22.639756    
     24000   4444.0295     -3260.3705     -67237.878      5743.7846     -61494.093      185720.05      12.51442      -61872.027      20.614758      22.941958      24.66399     
     25000   4535.2924      1570.7133     -67171.025      5861.7392     -61309.286      185758.39      12.511837     -61127.176      21.462979      23.354599      26.299665    
     26000   4489.3702     -1400.7298     -67226.49       5802.3861     -61424.104      185600.64      12.522471     -61586.369      23.982494      24.247118      26.159006    
     27000   4464.701      -781.55723     -66909.606      5770.5019     -61139.104      186583.94      12.456478     -61230.121      23.735022      25.494768      27.443259    
     28000   4489.0883     -60.573263     -66795.118      5802.0218     -60993.097      186726.13      12.446993     -61000.156      25.052969      26.040074      28.853306    
     29000   4488.6166     -2872.2632     -66769.872      5801.4122     -60968.46       187151.84      12.41868      -61303.972      24.739489      28.187042      28.919624    
     30000   4509.7243      554.04962     -66708.138      5828.6932     -60879.445      187084.3       12.423163     -60814.749      26.626873      28.812237      29.794326    
     31000   4454.879       2135.5589     -66675.358      5757.8072     -60917.551      186873.22      12.437196     -60668.465      27.915655      29.164129      30.711371    
     32000   4505.3285      1413.2339     -66629.166      5823.0117     -60806.154      187238.51      12.412931     -60640.997      29.552632      30.415039      31.567942    
     33000   4466.317       387.3653      -66705.764      5772.5906     -60933.173      186764.85      12.444412     -60888.018      29.241681      31.844218      32.925877    
     34000   4499.4192     -2507.2309     -66665.062      5815.3742     -60849.688      187159.24      12.418189     -61142.571      29.379677      34.102743      34.167798    
     35000   4468.6853      292.26099     -66616.854      5775.6515     -60841.203      187072.66      12.423936     -60807.078      31.997175      35.043686      34.539033    
     36000   4494.484      -884.81845     -66678.373      5808.9956     -60869.377      187264.57      12.411204     -60972.796      34.692724      35.23555       35.795991    
     37000   4440.1949      2720.2547     -66632.161      5738.8284     -60893.333      186840.13      12.439398     -60576.106      33.85876       36.800262      36.93082     
     38000   4493.5457     -1593.4835     -66636.252      5807.7828     -60828.469      187094.56      12.422481     -61014.549      33.889323      39.861008      37.233583    
     39000   4482.8843     -3685.7004     -66697.483      5794.0033     -60903.479      187075.33      12.423759     -61333.834      34.735095      40.616774      39.032759    
     40000   4495.5871      959.32703     -66716.022      5810.4213     -60905.601      186629.09      12.453465     -60793.854      35.335045      42.280118      39.62083     
     41000   4469.5408     -1776.6698     -66714.786      5776.7572     -60938.029      186784.77      12.443085     -61145.156      37.621874      41.673792      41.464887    
     42000   4429.5087     -2548.8426     -66787.989      5725.0168     -61062.973      186991.02      12.42936      -61360.45       38.55899       43.242767      42.577877    
     43000   4454.0537     -140.44071     -66673.085      5756.7405     -60916.345      186790.84      12.44268      -60932.718      40.100501      44.163929      43.159216    
     44000   4473.5907     -336.68022     -66691.677      5781.9916     -60909.685      186903.84      12.435158     -60948.961      42.647066      44.387757      43.861964    
     45000   4527.0756     -1315.4185     -66715.776      5851.1193     -60864.657      186897.75      12.435563     -61018.103      42.899945      46.439049      44.935877    
     46000   4467.4842     -200.95783     -66672.662      5774.0991     -60898.562      186776.3       12.443649     -60921.989      42.971425      48.012511      46.296667    
     47000   4460.8103     -701.94194     -66627.522      5765.4733     -60862.049      187080.25      12.423432     -60944.012      43.631722      48.529298      48.78039     
     48000   4489.9906     -3560.9889     -66762.782      5803.188      -60959.594      187171.46      12.417378     -61375.6        44.559109      50.154755      50.093661    
     49000   4497.4571      924.47322     -66684.626      5812.8383     -60871.788      186691.97      12.44927      -60764.064      47.050026      49.762451      51.181076    
     50000   4482.0472     -6612.489      -66674.539      5792.9213     -60881.618      187897.06      12.369426     -61657.105      49.2588        50.859269      52.93021     
     51000   4496.5651      264.52131     -66793.022      5811.6854     -60981.336      186499.54      12.462115     -60950.545      49.186086      52.495415      53.751248    
     52000   4509.1003      588.56908     -66640.002      5827.8868     -60812.115      186940.23      12.432737     -60743.441      51.736948      54.599503      53.42015     
     53000   4502.2885      2263.0945     -66650.842      5819.0827     -60831.759      186700.19      12.448722     -60568.043      53.558546      56.987675      53.553761    
     54000   4467.7333     -1672.3028     -66790.163      5774.421      -61015.742      186761.52      12.444634     -61210.678      55.184311      59.420913      53.781689    
     55000   4525.7398     -2115.8161     -66756.233      5849.3929     -60906.84       186994.55      12.429126     -61153.783      54.501755      61.533768      55.522543    
     56000   4541.162      -161.8148      -66711.378      5869.3256     -60842.052      186806.23      12.441656     -60860.919      56.016424      63.333268      55.360049    
     57000   4530.6627     -2876.1035     -66586.091      5855.7556     -60730.336      187239.1       12.412892     -61066.453      55.959424      63.896313      57.5887      
     58000   4487.7527     -231.12736     -66780.823      5800.2956     -60980.527      186510.66      12.461372     -61007.433      56.165877      66.775591      58.311388    
     59000   4476.4129     -5173.0103     -66737.372      5785.6391     -60951.733      187273.93      12.410583     -61556.391      57.105778      67.013895      60.164074    
     60000   4478.9281     -2914.2413     -66759.783      5788.89       -60970.893      186750.58      12.445363     -61310.579      58.149638      66.672446      61.88987     
     61000   4519.4198     -1890.9119     -66699.624      5841.2244     -60858.4        187221.55      12.414056     -61079.362      60.210984      66.171785      63.156202    
     62000   4507.836       1250.057      -66721.598      5826.2527     -60895.345      186495         12.462419     -60749.837      61.177447      66.860245      64.449543    
     63000   4479.0615      2346.3546     -66653.753      5789.0624     -60864.691      186915.03      12.434413     -60590.957      63.777484      68.051411      64.545034    
     64000   4514.9752     -1119.6366     -66752.209      5835.4799     -60916.729      186858.17      12.438197     -61047.31       67.15387       68.913502      64.061055    
     65000   4496.6984     -80.550658     -66827.438      5811.8576     -61015.581      186350.24      12.472099     -61024.949      67.856831      68.931675      65.912141    
     66000   4448.8738     -61.839106     -66554.681      5750.0457     -60804.636      187195.14      12.415807     -60811.861      69.12867       70.658474      67.431571    
     67000   4496.9137     -3846.5759     -66618.241      5812.136      -60806.105      187405.15      12.401894     -61256.035      68.92202       72.302502      69.741495    
     68000   4452.8483     -1300.9064     -66680.493      5755.1825     -60925.31       187200.44      12.415456     -61077.31       69.756921      73.470826      71.113336    
     69000   4503.2277     -112.19534     -66677.335      5820.2966     -60857.039      186853.17      12.43853      -60870.123      72.181067      73.795285      71.249549    
     70000   4482.831       213.61467     -66608.676      5793.9344     -60814.742      187117.76      12.420942     -60789.794      73.808475      74.272849      72.813383    
     71000   4562.7985     -512.67423     -66693.046      5897.2902     -60795.756      186987.15      12.429617     -60855.589      75.003985      76.445968      72.686214    
     72000   4545.4058     -1434.6547     -66661.316      5874.8105     -60786.506      187244.55      12.412531     -60954.172      79.086569      76.259314      73.683047    
     73000   4471.2543      2188.9665     -66681.471      5778.9719     -60902.499      186604.61      12.455098     -60647.552      78.897545      78.373659      74.023436    
     74000   4482.5597     -987.69678     -66791.113      5793.5837     -60997.53       186580.63      12.456699     -61112.551      83.479252      76.815061      75.723469    
     75000   4565.7819     -221.66037     -66609.086      5901.1462     -60707.939      187180.7       12.416765     -60733.836      88.187802      76.361178      77.235667    
     76000   4526.7012     -3340.5093     -66632.062      5850.6354     -60781.426      187449.68      12.398947     -61172.256      84.088415      77.952178      79.712175    
     77000   4495.1189     -3455.404      -66680.209      5809.8161     -60870.393      187308.94      12.408264     -61274.361      85.343469      79.780596      79.385215    
     78000   4564.7553      4649.3355     -66695.656      5899.8193     -60795.837      186582.48      12.456575     -60254.396      84.303868      80.544603      81.048279    
     79000   4513.2411     -1923.8989     -66614.238      5833.2386     -60780.999      187380.32      12.403537     -61006.006      83.33773       82.526415      83.088688    
     80000   4478.6546      1129.8569     -66630.164      5788.5365     -60841.628      186928.55      12.433514     -60709.805      85.470256      82.709291      84.223484    
     81000   4519.6794      251.2276      -66790.559      5841.5599     -60948.999      186654.12      12.451795     -60919.731      88.569312      82.359608      85.51926     
     82000   4512.4929     -914.54857     -66690.144      5832.2716     -60857.872      186941.85      12.432629     -60964.581      90.989229      85.258036      83.862423    
     83000   4492.5983     -8.2739962     -66678.472      5806.5583     -60871.913      186893.47      12.435848     -60872.878      88.288743      86.732694      85.965755    
     84000   4528.5477      182.3401      -66628.519      5853.022      -60775.497      187058.83      12.424854     -60754.208      87.937343      90.21338       85.99912     
     85000   4542.349       4263.1078     -66666.668      5870.8598     -60795.808      186744.9       12.445742     -60298.913      86.548213      90.253045      89.895668    
     86000   4478.1168      4156.6044     -66803.733      5787.8414     -61015.892      186049.26      12.492276     -60533.215      88.279731      90.985518      90.091825    
     87000   4501.807       2983.0734     -66644.342      5818.4604     -60825.882      186340.09      12.472779     -60478.937      86.935955      94.462875      91.333083    
     88000   4508.5092     -1085.5148     -66731.976      5827.1227     -60904.854      186778.22      12.443521     -61031.401      87.467984      96.683709      92.669253    
     89000   4474.2197     -1916.1181     -66699.164      5782.8045     -60916.36       187222.63      12.413984     -61140.268      87.78097       98.744487      94.471682    
     90000   4484.2992     -3577.1722     -66586.317      5795.8319     -60790.485      187386.83      12.403106     -61208.863      89.002588      103.38654      92.938648    
     91000   4464.5046     -1850.8065     -66770.563      5770.2481     -61000.315      187130.75      12.420079     -61216.485      89.838235      103.56456      95.647323    
     92000   4469.099      -978.86653     -66689.88       5776.1862     -60913.694      187013.16      12.427889     -61027.952      90.307081      106.79831      97.220758    
     93000   4524.78       -4357.7711     -66617.648      5848.1524     -60769.496      187555.85      12.391929     -61279.631      91.608202      107.57603      98.626238    
     94000   4483.0617      3457.4754     -66625.89       5794.2326     -60831.657      186900.58      12.435374     -60428.328      94.175507      106.38328      98.725701    
     95000   4525.0841      3733.4913     -66594.847      5848.5454     -60746.302      186783.04      12.4432       -60311.049      94.752124      109.33585      98.358354    
     96000   4459.2473      4283.2491     -66723.492      5763.4531     -60960.039      186460.76      12.464707     -60461.555      97.629604      107.77183      99.134008    
     97000   4556.5548      1010.3713     -66801.301      5889.2204     -60912.081      186518         12.460882     -60794.458      100.22324      106.14091      101.13426    
     98000   4455.215       79.760693     -66763.227      5758.2415     -61004.985      186631.85      12.45328      -60995.694      101.86935      108.74703      101.1416     
     99000   4512.8188     -1874.2703     -66733.251      5832.6928     -60900.558      186932.24      12.433269     -61119.237      103.08941      110.47357      101.63661    
    100000   4510.9763      2650.6758     -66701.643      5830.3114     -60871.331      186562.42      12.457915     -60562.678      105.52311      111.65832      100.63678    
    101000   4481.9816      244.16965     -66625.195      5792.8366     -60832.358      187011.52      12.427998     -60803.858      103.46541      112.79465      103.91118    
    102000   4490.26       -3744.5969     -66781.049      5803.5362     -60977.512      187052.94      12.425245     -61414.691      103.33299      116.90701      103.39332    
    103000   4511.1465     -197.6422      -66542.148      5830.5314     -60711.617      187090.12      12.422776     -60734.696      104.77747      118.77439      103.94002    
    104000   4496.151       161.38325     -66656.301      5811.1501     -60845.151      186861.38      12.437983     -60826.329      103.52918      120.27628      106.8727     
    105000   4572.9361     -1320.7277     -66729.484      5910.3927     -60819.091      186930.42      12.43339      -60973.184      102.98319      121.93155      108.92534    
    106000   4568.6501      1327.0652     -66698.019      5904.8532     -60793.166      186542.93      12.459217     -60638.654      102.68093      125.49829      109.74971    
    107000   4500.6434      2441.9317     -66708.535      5816.9564     -60891.579      186538.7       12.459499     -60607.269      104.70462      126.83241      109.64103    
    108000   4552.4743      1832.1729     -66621.272      5883.9465     -60737.325      186500.48      12.462052     -60524.052      105.56766      128.24332      110.78176    
    109000   4545.4594      915.20626     -66668.66       5874.8799     -60793.781      187030.68      12.426725     -60686.944      106.96969      127.30217      113.39537    
    110000   4491.9384      663.86034     -66701.353      5805.7055     -60895.647      186645.64      12.45236      -60818.311      107.19672      130.78678      114.11075    
    111000   4482.5017      3229.2457     -66581.963      5793.5088     -60788.454      186700.4       12.448708     -60412.153      108.33478      132.31798      114.72308    
    112000   4503.8477     -2358.4412     -66758.381      5821.0979     -60937.283      187030.63      12.426728     -61212.596      110.91111      134.87736      114.13335    
    113000   4510.2433      1582.6672     -66819.15       5829.364      -60989.786      186332.96      12.473256     -60805.722      111.57999      134.94486      115.89379    
    114000   4494.2042      1467.3205     -66532.975      5808.6339     -60724.341      187081.37      12.423358     -60553.006      114.98727      134.59125      116.15726    
    115000   4496.1973     -804.12838     -66722.096      5811.21       -60910.886      187059.56      12.424806     -61004.771      121.14736      134.60607      114.95507    
    116000   4464.865       3882.8459     -66808.533      5770.7139     -61037.82       186311.73      12.474678     -60586.296      122.60375      133.61725      115.90882    
    117000   4541.3546      2001.1426     -66681.653      5869.5745     -60812.079      186843.07      12.439202     -60578.709      124.29637      132.78788      117.78779    
    118000   4468.6203      1254.9046     -66704.381      5775.5674     -60928.814      186848.84      12.438818     -60782.464      128.31983      134.20129      117.15795    
    119000   4484.0291     -3560.344      -66501.597      5795.4829     -60706.114      187599.63      12.389037     -61122.996      126.03868      138.61981      118.60387    
    120000   4462.836      -4034.3931     -66684.694      5768.0914     -60916.603      187092.35      12.422628     -61387.714      125.26799      139.16901      119.86494    
    121000   4500.8212      2855.7515     -66783.309      5817.1863     -60966.122      186247.21      12.478999     -60634.152      124.83795      140.39845      121.36297    
    122000   4481.4669      1590.7365     -66612.194      5792.1714     -60820.023      186852.91      12.438547     -60634.504      132.34178      139.68163      121.31597    
    123000   4517.3492      1125.2171     -66765.515      5838.5482     -60926.967      186669.08      12.450796     -60795.868      133.69302      140.24295      121.91673    
    124000   4466.52        1211.7262     -66581.106      5772.8528     -60808.253      186965.38      12.431065     -60666.851      135.96274      139.38576      123.5754     
    125000   4531.0501      2917.2932     -66705.052      5856.2562     -60848.796      186735.8       12.446348     -60508.781      132.91318      140.65316      125.9096     
    126000   4452.2173      736.55683     -66648.462      5754.3671     -60894.095      186925.98      12.433685     -60808.161      131.92322      143.30319      127.50055    
    127000   4510.3361      558.10351     -66794.799      5829.484      -60965.315      186537.27      12.459595     -60900.337      135.79635      143.10364      128.07965    
    128000   4556.0125     -2517.0996     -66722.989      5888.5194     -60834.469      187135.91      12.419737     -61128.469      138.86803      143.18238      130.43364    
    129000   4502.3402      3942.8048     -66673.877      5819.1495     -60854.728      186510.9       12.461356     -60395.742      136.11881      145.58012      132.14061    
    130000   4544.412       345.76984     -66611.443      5873.5262     -60737.917      187314.64      12.407886     -60697.492      140.36695      143.67896      133.91374    
    131000   4518.6226     -1255.099      -66743.32       5840.194      -60903.126      187084.44      12.423154     -61049.682      139.0816       146.28925      134.6158     
    132000   4487.2243     -4015.5712     -66740.864      5799.6126     -60941.251      187024.74      12.427119     -61409.995      137.074        152.46972      134.26231    
    133000   4459.4579     -3384.4811     -66638.381      5763.7253     -60874.656      187423.97      12.400648     -61270.575      139.12351      151.82346      136.05128    
    134000   4449.3462     -295.68797     -66672.331      5750.6562     -60921.675      187034.34      12.426482     -60956.193      138.73502      152.00711      137.62736    
    135000   4565.706      -1492.8804     -66513.156      5901.048      -60612.108      187826.45      12.374076     -60787.121      143.90648      150.10653      139.33728    
    136000   4593.1978     -1514.9083     -66766.463      5936.5804     -60829.883      186910.46      12.434717     -61006.612      150.42741      148.01055      139.5533     
    137000   4552.9655      508.27812     -66778.254      5884.5813     -60893.673      186378.43      12.470213     -60834.546      151.20571      148.20582      140.05938    
    138000   4487.7182     -2252.1372     -66717.515      5800.251      -60917.264      186925.32      12.433729     -61180.02       151.73533      150.77024      141.56402    
    139000   4438.3583      1050.9489     -66657.293      5736.4546     -60920.838      186945.83      12.432365     -60798.211      150.57403      151.309        145.42686    
    140000   4506.8569      1240.2586     -66612.751      5824.9872     -60787.764      186853.97      12.438477     -60643.119      146.55355      152.95577      150.08726    
    141000   4503.7069     -773.96393     -66679.768      5820.9159     -60858.852      187038.3       12.426218     -60949.204      147.95221      154.04104      151.21778    
    142000   4561.8687      1095.6387     -66568.009      5896.0885     -60671.921      187120.94      12.42073      -60543.959      147.89817      154.51477      153.40943    
    143000   4474.7664     -182.86773     -66607.656      5783.5111     -60824.145      187019.64      12.427458     -60845.491      151.59646      155.20367      152.32236    
    144000   4528.3174      5185.0226     -66622.734      5852.7244     -60770.009      186489.55      12.462783     -60166.485      152.47642      154.60757      153.80706    
    145000   4476.9115      2791.8965     -66608.819      5786.2836     -60822.536      186871.45      12.437313     -60496.9        150.71786      159.00592      154.87982    
    146000   4516.1237     -2113.38       -66664.181      5836.9643     -60827.216      187240.07      12.412828     -61074.199      151.87346      162.83798      153.74531    
    147000   4482.5755     -1567.7159     -66683.561      5793.6042     -60889.957      187212.2       12.414676     -61073.142      157.27106      161.22571      152.92279    
    148000   4521.0826      1474.0778     -66635.231      5843.3736     -60791.857      186884.79      12.436425     -60619.914      156.61691      164.34383      152.76062    
    149000   4433.3878      227.43411     -66691.034      5730.0305     -60961.004      186719.72      12.44742      -60934.498      156.35553      162.71442      156.29445    
    150000   4510.1443     -2130.7208     -66698.768      5829.2361     -60869.532      187069.58      12.42414      -61118.314      156.9813       164.43865      158.07622    
    151000   4462.1722      1575.3391     -66632.033      5767.2335     -60864.8        187050.51      12.425407     -60680.883      162.91799      163.64061      157.13759    
    152000   4481.1933     -107.57532     -66650.01       5791.8177     -60858.193      187210.13      12.414813     -60870.763      166.5283       160.86398      160.32674    
    153000   4493.3594     -381.14807     -66792.543      5807.5421     -60985.001      186722.75      12.447218     -61029.421      169.44419      160.63524      161.47434    
    154000   4505.1736      845.40956     -66647.547      5822.8115     -60824.735      187055.91      12.425049     -60726.033      168.96642      164.29978      161.47586    
    155000   4487.2846      1339.5758     -66730.211      5799.6906     -60930.521      186527.61      12.46024      -60774.565      166.31804      165.05494      164.36242    
    156000   4467.3484     -636.79139     -66838.982      5773.9235     -61065.059      186378.72      12.470194     -61139.136      169.71246      164.61932      164.75434    
    157000   4495.2937     -3486.6982     -66656.05       5810.0421     -60846.008      187181.29      12.416726     -61253.357      175.63         164.30239      165.32031    
    158000   4516.4754     -5218.3068     -66764.482      5837.4188     -60927.063      187158.19      12.418258     -61536.639      179.28306      166.54938      164.78022    
    159000   4438.4277     -3529.9846     -66644.316      5736.5443     -60907.771      187581.67      12.390223     -61321.059      180.72017      167.77765      165.72329    
    160000   4492.4584     -1668.381      -66695.748      5806.3776     -60889.37       187075.77      12.42373      -61084.176      185.04233      167.45781      164.89693    
    161000   4501.9821      1678.0461     -66554.618      5818.6867     -60735.931      187197.44      12.415655     -60539.869      185.65981      166.13568      168.94019    
    162000   4461.9604     -123.90755     -66577.804      5766.9597     -60810.845      186899.86      12.435423     -60825.299      183.68127      165.46693      173.56905    
    163000   4484.1636      2554.8937     -66686.883      5795.6568     -60891.226      186522.35      12.460591     -60593.791      177.56704      167.15042      177.67933    
    164000   4544.166       4419.4482     -66764.454      5873.2082     -60891.246      186150.64      12.485473     -60377.768      180.64132      167.40542      178.23741    
    165000   4541.8727     -3250.2416     -66727.103      5870.2441     -60856.859      187161.39      12.418046     -61236.542      177.81896      169.65809      182.78858    
    166000   4474.5591      539.80831     -66610.82       5783.2432     -60827.576      187063.58      12.424539     -60764.551      177.38106      172.76421      182.89871    
    167000   4514.3948     -125.21036     -66652.782      5834.7298     -60818.052      187001.08      12.428692     -60832.666      180.656        171.6217       185.27742    
    168000   4526.0302      1536.238      -66712.729      5849.7681     -60862.961      186684.92      12.44974      -60683.959      185.91144      170.65865      185.70298    
    169000   4448.4795     -733.56454     -66628.425      5749.5361     -60878.889      187159.5       12.418172     -60964.581      190.32266      170.89693      187.12036    
    170000   4450.4945     -304.62057     -66656.51       5752.1403     -60904.37       187099.48      12.422155     -60939.943      195.13088      169.77883      188.46031    
    171000   4467.6479     -2334.3705     -66558.185      5774.3107     -60783.875      187352.17      12.405401     -61056.847      200.04319      170.30952      188.68068    
    172000   4507.0239     -2739.9807     -66734.018      5825.203      -60908.815      187002.38      12.428605     -61228.619      201.23202      174.08406      186.19374    
    173000   4498.0427      588.36721     -66689.724      5813.595      -60876.129      186907.27      12.43493      -60807.491      199.24097      175.05614      189.49151    
    174000   4488.0997     -859.79989     -66682.892      5800.7441     -60882.148      187130.92      12.420068     -60982.571      201.52845      176.63519      190.76967    
    175000   4449.4763     -2273.8573     -66704.962      5750.8244     -60954.138      186932.48      12.433253     -61219.438      199.83151      178.45389      192.65743    
    176000   4548.4551      1468.8054     -66688.781      5878.7518     -60810.03       186778.62      12.443494     -60638.799      193.42866      183.14049      194.51607    
    177000   4498.3525     -2809.7918     -66696.261      5813.9956     -60882.265      187027.9       12.42691      -61210.263      193.4          188.29724      192.25071    
    178000   4507.6761      1934.7033     -66718.977      5826.046      -60892.931      186590.7       12.456027     -60667.614      197.91961      188.22764      191.24895    
    179000   4455.7269     -1647.0384     -66812.702      5758.903      -61053.799      187085.95      12.423054     -61246.123      196.94052      189.10327      195.28949    
    180000   4490.6538     -621.28036     -66668.619      5804.0452     -60864.574      187237.67      12.412987     -60937.18       196.59297      193.01627      195.04872    
    181000   4503.6474     -538.47325     -66844.794      5820.839      -61023.955      186814.05      12.441134     -61086.741      191.26583      197.77522      196.48617    
    182000   4476.4721     -885.77268     -66640.486      5785.7157     -60854.77       187156.52      12.418369     -60958.241      192.35373      200.43487      197.03426    
    183000   4479.4582     -580.88764     -66744.022      5789.5751     -60954.447      187048.28      12.425556     -61022.264      195.63636      204.88176      192.71556    
    184000   4477.83        764.98174     -66645.565      5787.4708     -60858.094      186877.47      12.436912     -60768.867      194.71114      203.3538       196.47394    
    185000   4461.6028     -950.30626     -66672.436      5766.4975     -60905.938      187146.26      12.41905      -61016.941      197.85228      203.74725      196.86142    
    186000   4509.0765      3323.6375     -66806.588      5827.856      -60978.732      186194.4       12.482539     -60592.481      197.96427      206.41605      193.67895    
    187000   4451.5743      137.17246     -66670.558      5753.536      -60917.022      186996.38      12.429004     -60901.012      199.57137      205.18153      198.66064    
    188000   4450.4272     -825.84428     -66613.468      5752.0534     -60861.415      186917.03      12.43428      -60957.762      201.96035      206.10481      199.60323    
    189000   4439.1061      1873.9609     -66651.383      5737.4211     -60913.961      186704.28      12.448449     -60695.586      204.16942      206.42191      200.75537    
    190000   4562.3161      2195.1381     -66571.849      5896.6667     -60675.182      186983.22      12.429879     -60418.997      207.17142      209.27473      199.01263    
    191000   4469.682      -2152.7652     -66704.184      5776.9396     -60927.244      186692.88      12.44921      -61178.094      204.27246      211.02802      201.82519    
    192000   4535.0093      1869.7808     -66625.091      5861.3735     -60763.718      186899.97      12.435415     -60545.601      198.39         216.41452      205.5476     
    193000   4553.7053      1450.2824     -66798.027      5885.5375     -60912.489      186454.46      12.465128     -60743.712      201.26283      212.40479      208.23442    
    194000   4510.2294     -1850.3147     -66515.343      5829.3461     -60685.997      187586.62      12.389897     -60902.636      204.64702      214.69721      209.43625    
    195000   4451.7548     -541.40955     -66728.256      5753.7693     -60974.487      186787.22      12.442922     -61037.606      203.24012      212.01049      214.16514    
    196000   4518.578       1123.0858     -66615.427      5840.1364     -60775.29       186880.38      12.436719     -60644.292      206.64081      214.23677      213.1866     
    197000   4493.3208     -2017.0745     -66788.098      5807.4921     -60980.606      187011.68      12.427987     -61216.046      210.67461      215.54494      211.38681    
    198000   4446.2269      600.89247     -66744.308      5746.6246     -60997.683      186927.66      12.433573     -60927.577      213.00907      217.52575      210.831      
    199000   4511.5802     -1265.7098     -66597.519      5831.092      -60766.427      187169.42      12.417513     -60914.29       215.54503      217.54752      213.46781    
    200000   4482.0624      1984.6225     -66572.374      5792.9411     -60779.433      187136.34      12.419708     -60547.627      215.1397       224.1046       210.61609    
    201000   4536.2899     -212.76563     -66587.024      5863.0285     -60723.995      187034.02      12.426503     -60748.833      213.30478      223.45796      214.7591     
    202000   4475.9409     -1001.4278     -66617.893      5785.0291     -60832.864      187346.78      12.405758     -60949.964      212.8458       225.59124      216.88644    
    203000   4539.4181      1438.9495     -66721.328      5867.0717     -60854.256      186565.77      12.457691     -60686.697      216.09007      223.79052      218.24911    
    204000   4526.9293      1531.7485     -66667.113      5850.9302     -60816.183      186637.84      12.452881     -60637.749      215.36747      227.73555      219.00734    
    205000   4520.216       4114.6143     -66687.776      5842.2535     -60845.522      186489.74      12.46277      -60366.59       223.217        225.52845      218.46483    
    206000   4522.2722      643.5085      -66656.834      5844.911      -60811.923      186811.67      12.441293     -60736.891      228.28122      224.71875      219.63174    
    207000   4504.3135      1788.7517     -66489.869      5821.6999     -60668.169      187365.95      12.404488     -60458.984      225.67854      226.76299      224.2265     
    208000   4494.3894     -224.81443     -66694.656      5808.8734     -60885.782      186788.83      12.442814     -60911.992      224.39002      229.88201      223.69648    
    209000   4484.3266     -2015.6568     -66657.506      5795.8674     -60861.639      187294.63      12.409212     -61097.269      230.0602       228.26197      224.25324    
    210000   4536.3778      64.359275     -66738.053      5863.1422     -60874.911      186839.91      12.439413     -60867.406      232.61405      225.38903      227.8701     
    211000   4473.9689     -4557.5367     -66740.272      5782.4803     -60957.791      187042.03      12.42597      -61489.849      225.68305      229.1418       232.76682    
    212000   4483.8451     -46.95901      -66649.083      5795.2451     -60853.838      186921.41      12.433989     -60859.317      229.11106      227.37539      235.55494    
    213000   4526.93        2288.6194     -66612.245      5850.9311     -60761.314      187063.83      12.424522     -60494.104      232.40929      225.27684      238.75085    
    214000   4521.8988      1552.4315     -66763.329      5844.4284     -60918.9        186810.01      12.441404     -60737.89       232.20938      223.42681      243.50174    
    215000   4543.9386      2142.9675     -66557.284      5872.9142     -60684.37       186956.37      12.431664     -60434.309      233.26728      226.31337      243.66248    
    216000   4527.215      -0.18946681    -66650.701      5851.2995     -60799.401      187037.52      12.42627      -60799.423      232.19617      231.50509      242.18511    
    217000   4442.2891     -1225.5321     -66594.498      5741.5352     -60852.963      187234.56      12.413193     -60996.182      233.19415      232.97862      242.90543    
    218000   4497.9011      16.892483     -66748.28       5813.4121     -60934.868      186788.63      12.442828     -60932.899      230.34817      230.33667      249.49724    
    219000   4521.1698     -3148.3032     -66739.502      5843.4863     -60896.016      187076.41      12.423687     -61263.624      238.87695      229.53873      246.72157    
    220000   4588.891      -1298.4384     -66644.68       5931.0139     -60713.667      187540.32      12.392955     -60865.653      242.25747      231.65922      245.07846    
    221000   4594.2597     -171.82229     -66607.574      5937.953      -60669.621      187629.64      12.387055     -60689.743      241.4423       237.14177      242.96636    
    222000   4535.354       1542.5912     -66614.337      5861.8189     -60752.518      186778.59      12.443497     -60572.686      239.81424      238.91056      243.80888    
    223000   4554.7426      1928.5697     -66771.959      5886.8782     -60885.081      186556.72      12.458295     -60660.519      239.07301      240.11056      245.48784    
    224000   4476.6787      2702.4721     -66699.663      5785.9827     -60913.68       186517.07      12.460944     -60599.072      241.92586      236.76964      249.55003    
    225000   4500.0291     -2726.5759     -66759.315      5816.1625     -60943.152      186813.18      12.441192     -61261.07       242.86674      238.63801      250.25496    
    226000   4474.005       1152.1108     -66582.048      5782.527      -60799.521      187113.66      12.421214     -60664.969      239.34688      240.99738      255.77293    
    227000   4517.5642      449.22401     -66600.131      5838.826      -60761.305      186972.78      12.430573     -60708.881      239.25349      240.39177      259.35566    
    228000   4533.645      -2577.6438     -66780.019      5859.61       -60920.409      187192.34      12.415993     -61221.571      247.21571      240.87257      256.93127    
    229000   4477.0835     -2925.0811     -66629.77       5786.5059     -60843.264      187250.31      12.412149     -61185.126      247.04509      240.55272      260.06906    
    230000   4523.4022     -1801.4523     -66633.551      5846.3716     -60787.179      187134.78      12.419811     -60997.59       258.239        237.76732      257.74124    
    231000   4518.0765      2014.8087     -66666.556      5839.4882     -60827.068      187067.29      12.424293     -60591.823      260.04193      234.34885      263.64128    
    232000   4561.2256     -5148.5118     -66703.464      5895.2572     -60808.207      187296.07      12.409117     -61410.073      262.79616      236.73743      264.11031    
    233000   4512.1069      363.10869     -66706.122      5831.7726     -60874.349      186957.68      12.431577     -60831.978      269.12272      234.63046      265.27069    
    234000   4457.3522      1298.2043     -66691.992      5761.0038     -60930.988      186630.08      12.453399     -60779.766      274.3713       232.26058      268.44487    
    235000   4520.7077     -1168.7621     -66731.928      5842.889      -60889.039      186800.34      12.442048     -61025.307      277.4158       237.27175      264.67644    
    236000   4557.0367      6498.5112     -66743.456      5889.8432     -60853.613      186155.98      12.485115     -60098.554      275.33669      240.17273      264.20204    
    237000   4553.6891     -2109.5921     -66696.806      5885.5165     -60811.29       186922.08      12.433945     -61057.411      278.79316      242.99957      263.95083    
    238000   4469.9472      2075.7177     -66702.516      5777.2824     -60925.234      186599.05      12.455469     -60683.483      281.5747       243.3784       263.10643    
    239000   4527.3257     -2045.8349     -66670.162      5851.4426     -60818.72       186998.85      12.42884      -61057.5        289.93628      243.86244      261.82241    
    240000   4534.738      -3216.3699     -66732.469      5861.0228     -60871.446      186931.14      12.433342     -61246.71       300.85132      242.49796      260.22217    
    241000   4533.0942      1535.76       -66710.728      5858.8982     -60851.829      186924.63      12.433775     -60672.654      303.93958      240.72539      263.40026    
    242000   4498.2312     -938.64646     -66530.478      5813.8388     -60716.639      187457.59      12.398424     -60826.462      306.51839      242.44511      265.63792    
    243000   4520.1829      2687.6265     -66790.458      5842.2106     -60948.248      186212.57      12.481321     -60635.879      298.91645      241.85626      270.07266    
    244000   4477.2907     -2714.5895     -66652.876      5786.7737     -60866.103      187184.45      12.416516     -61183.252      297.66408      242.02241      277.34154    
    245000   4519.3989     -3012.9588     -66684.845      5841.1974     -60843.648      187424.44      12.400618     -61196.107      292.79987      244.61126      279.54395    
    246000   4516.6244      1693.7052     -66812.664      5837.6114     -60975.053      186447.42      12.465599     -60777.954      297.11963      242.07983      279.84654    
    247000   4525.1872     -5701.265      -66824.051      5848.6786     -60975.372      187186.5       12.41638      -61641.466      298.36529      241.89939      285.41193    
    248000   4483.7716     -4703.917      -66529.891      5795.1501     -60734.741      187959.15      12.36534      -61286.58       301.48211      244.39963      285.83332    
    249000   4436.955      -1974.8458     -66694.734      5734.641      -60960.093      186894.84      12.435757     -61190.46       310.74912      240.43727      285.22981    
    250000   4542.2936     -47.178781     -66590.779      5870.7882     -60719.991      187024.01      12.427168     -60725.498      318.91763      239.35835      284.72802    
    251000   4539.2883     -2357.8066     -66665.151      5866.9038     -60798.247      187256.73      12.411723     -61073.82       313.9915       240.66002      289.65951    
    252000   4446.755       1818.5176     -66729.072      5747.3072     -60981.765      186463.98      12.464492     -60770.123      312.66958      237.80284      294.34886    
    253000   4503.8939      1500.1231     -66662.103      5821.1576     -60840.945      186824.93      12.44041      -60666.021      316.15157      240.27238      291.93145    
    254000   4480.1907      3384.282      -66678.348      5790.5219     -60887.826      186510.63      12.461374     -60493.859      313.39477      244.43735      289.11933    
    255000   4471.4961     -960.37632     -66665.486      5779.2844     -60886.202      187042.47      12.425941     -60998.319      321.74558      243.99422      290.65412    
    256000   4450.8412      1288.9695     -66688.393      5752.5884     -60935.805      186625.52      12.453703     -60785.663      322.4298       247.38188      286.0707     
    257000   4484.0665     -1618.9236     -66624.313      5795.5313     -60828.781      187252.39      12.412011     -61017.991      322.6519       251.10878      286.82043    
    258000   4484.0626      1584.5112     -66740.186      5795.5262     -60944.66       186708.35      12.448178     -60760.01       326.15633      251.94228      286.40679    
    259000   4512.065       2203.6538     -66524.651      5831.7185     -60692.933      187196.77      12.415699     -60435.46       319.67667      256.47389      287.73943    
    260000   4553.3979      120.66334     -66730.057      5885.1401     -60844.917      186743.48      12.445836     -60830.853      318.82458      253.29317      293.43835    
    261000   4516.2954     -738.84656     -66606.56       5837.1862     -60769.374      186997.92      12.428902     -60855.608      321.4437       253.29489      295.37326    
    262000   4486.5944      1610.6584     -66795.696      5798.7985     -60996.898      186229.91      12.480158     -60809.682      323.86297      253.95707      292.98347    
    263000   4522.9098      3965.6815     -66714.93       5845.7352     -60869.195      186593.05      12.45587      -60407.343      323.21179      256.30106      295.01419    
    264000   4474.7296     -4130.12       -66486.843      5783.4636     -60703.38       187918.68      12.368003     -61187.8        317.95767      259.06369      301.411      
    265000   4515.2186     -1999.5331     -66668.827      5835.7945     -60833.033      187085.19      12.423104     -61066.517      313.95601      259.3038       304.95245    
    266000   4477.2568      5676.115      -66610.592      5786.7299     -60823.862      186734.29      12.446449     -60162.309      319.66261      258.01223      304.51634    
    267000   4524.8951      2104.4439     -66655.49       5848.3011     -60807.189      186580.21      12.456727     -60562.118      312.32743      262.16455      306.31606    
    268000   4558.2369      1260.8163     -66722.975      5891.3945     -60831.581      186781.71      12.443289     -60684.595      318.83197      264.35449      303.27567    
    269000   4505.7116      4781.8328     -66804.494      5823.5069     -60980.987      186266.21      12.477726     -60425.059      318.99683      264.80848      304.6945     
    270000   4529.1049      5134.6725     -66768.231      5853.7422     -60914.489      186117.72      12.487681     -60318.016      330.75535      265.14841      299.8026     
    271000   4513.8326      1192.8246     -66557.376      5834.003      -60723.373      187166.64      12.417697     -60584.027      331.7968       268.59067      301.77825    
    272000   4486.7681      3443.5083     -66650.665      5799.023      -60851.642      186778.2       12.443523     -60450.205      326.1505       267.58296      308.46739    
    273000   4469.38       -75.858401     -66587.819      5776.5494     -60811.27       187179.96      12.416814     -60820.132      328.22129      265.01309      315.59737    
    274000   4492.5268      2797.0705     -66636.608      5806.466      -60830.142      186854.96      12.43841      -60503.932      329.59608      265.59157      316.32087    
    275000   4535.7225      4845.6309     -66689.725      5862.2952     -60827.43       186411.32      12.468013     -60263.646      317.75784      269.23534      320.06367    
    276000   4465.6572      4248.1592     -66640.794      5771.7378     -60869.057      186308.66      12.474883     -60375.061      317.50536      271.94184      319.03401    
    277000   4503.5283      2357.8387     -66712.478      5820.685      -60891.793      186423.77      12.46718      -60617.442      324.17077      275.1104       312.24476    
    278000   4534.7251     -60.878577     -66660.094      5861.0061     -60799.088      186812.6       12.441231     -60806.186      328.81697      274.3101       315.51721    
    279000   4522.5381      4898.4945     -66729.177      5845.2547     -60883.922      186255.87      12.478419     -60314.463      320.81962      278.05356      317.56719    
    280000   4537.4649      3541.8134     -66653.875      5864.5472     -60789.328      186772.34      12.443913     -60376.444      322.35606      282.65574      315.35729    
    281000   4564.5444      1668.7105     -66668.829      5899.5467     -60769.283      186840.5       12.439373     -60574.683      322.22341      286.84083      313.12994    
    282000   4528.0906     -2693.333      -66636.357      5852.4311     -60783.926      187302.39      12.408698     -61098.79       326.24149      283.60572      319.00431    
    283000   4514.956      -1062.9691     -66673.701      5835.4551     -60838.246      186959.34      12.431467     -60962.285      329.01493      286.2495       314.82902    
    284000   4489.9321     -4334.9952     -66557.062      5803.1124     -60753.949      187627.25      12.387213     -61261.611      331.29567      291.25114      312.74191    
    285000   4501.5224     -2560.7118     -66720.991      5818.0925     -60902.899      187088.95      12.422854     -61201.917      336.40854      294.28147      308.43426    
    286000   4474.6154     -452.72819     -66500.804      5783.316      -60717.488      187196.9       12.41569      -60770.384      337.62577      291.33571      314.84783    
    287000   4536.9348      2366.7384     -66666.895      5863.862      -60803.033      186627.62      12.453562     -60527.346      337.69147      288.29373      320.03326    
    288000   4550.7896      3609.4867     -66734.199      5881.769      -60852.43       186540.69      12.459366     -60432.179      329.63454      288.49382      327.78502    
    289000   4474.8705      1527.9327     -66654.988      5783.6457     -60871.343      186912.63      12.434573     -60693.091      327.63319      290.63789      331.50833    
    290000   4441.9673     -3206.5937     -66592.597      5741.1192     -60851.478      187201.45      12.415388     -61226.143      327.05931      295.58367      329.66753    
    291000   4502.6821     -4928.9796     -66542.675      5819.5914     -60723.084      187975.42      12.364269     -61301.377      327.67212      299.68421      330.86928    
    292000   4523.162       952.73545     -66720.454      5846.0612     -60874.393      186694.23      12.449119     -60763.375      322.33278      300.8025       331.99666    
    293000   4529.9407     -286.14299     -66665.07       5854.8223     -60810.248      186967.11      12.43095      -60843.64       322.99945      301.75072      334.1838     
    294000   4553.3231      1289.1618     -66610.577      5885.0435     -60725.533      186954.11      12.431814     -60575.104      327.15274      304.97269      330.36755    
    295000   4563.9039      557.88161     -66747.464      5898.7189     -60848.745      186807.9       12.441544     -60783.698      329.66296      308.21959      327.08163    
    296000   4493.022       4056.0377     -66759.185      5807.106      -60952.079      186310.83      12.474738     -60480.418      331.89627      305.47699      329.17893    
    297000   4453.2915     -2661.6287     -66840.424      5755.7554     -61084.669      186576.96      12.456944     -61394.621      334.38587      303.82666      333.09257    
    298000   4528.7234      3392.3713     -66708.878      5853.2491     -60855.629      186306.73      12.475012     -60461.152      334.81852      302.31563      336.73475    
    299000   4469.598       1610.2506     -66611.644      5776.8311     -60834.813      186866.16      12.437665     -60647.005      334.58779      299.19611      346.01889    
    300000   4467.2333     -1489.9287     -66680.776      5773.7748     -60907.001      187057.1       12.42497      -61080.953      339.85817      299.57609      344.32343    
    301000   4491.0077     -1464.9924     -66643.461      5804.5025     -60838.958      187513.77      12.39471      -61010.416      341.67757      305.45131      338.83447    
    302000   4537.4546      1809.0421     -66658.09       5864.5339     -60793.556      186733.91      12.446474     -60582.712      337.57793      305.75469      343.76474    
    303000   4503.5268      4630.1549     -66760.236      5820.6832     -60939.553      186188.23      12.482952     -60401.484      338.93437      306.31688      343.22631    
    304000   4460.8193      6258.8542     -66735.318      5765.4849     -60969.833      186012.42      12.494751     -60243.181      336.88328      314.06191      337.7844     
    305000   4495.3568     -1174.6286     -66658.359      5810.1236     -60848.236      186993.06      12.429225     -60985.329      332.40489      318.62648      342.86518    
    306000   4520.9693      3753.4626     -66714.24       5843.227      -60871.013      186517.65      12.460905     -60434.053      335.51255      320.55352      340.11407    
    307000   4478.9678     -3502.8297     -66624.004      5788.9413     -60835.063      187456.21      12.398516     -61244.897      338.14392      320.24264      345.53713    
    308000   4507.2637      3838.2286     -66747.131      5825.513      -60921.618      186396.68      12.468992     -60475.08       332.5943       317.53615      351.2699     
    309000   4506.4715     -3019.8572     -66655.594      5824.489      -60831.105      187265.1       12.411169     -61184.071      334.90552      319.76403      352.55698    
    310000   4458.743      -2924.2434     -66622.572      5762.8013     -60859.771      187133.95      12.419867     -61201.322      330.6625       325.09579      354.41508    
    311000   4496.7242     -2898.3541     -66627.574      5811.891      -60815.683      187288.74      12.409602     -61154.49       327.98457      330.67239      355.29421    
    312000   4510.0073     -2812.2147     -66641.368      5829.059      -60812.309      187442.02      12.399454     -61141.316      332.98642      330.24341      354.10956    
    313000   4497.3256     -3470.859      -66629.889      5812.6682     -60817.221      187467.42      12.397774     -61223.339      332.73887      327.70873      361.28954    
    314000   4532.6714      1230.9635     -66734.467      5858.3517     -60876.115      186488.96      12.462822     -60732.834      333.1182       323.55393      364.84626    
    315000   4535.2084      4312.4143     -66658.59       5861.6307     -60796.96       186679.25      12.450119     -60294.494      335.63321      319.99704      369.54547    
    316000   4490.8324      3425.1556     -66693.048      5804.2761     -60888.772      186473.02      12.463888     -60490.128      337.44291      318.62932      373.02452    
    317000   4553.6932      6761.5777     -66697.921      5885.5218     -60812.399      186281.02      12.476734     -60026.247      331.41345      322.47159      377.10066    
    318000   4512.2302      4607.7399     -66692.832      5831.9321     -60860.9        186205.41      12.4818       -60325.387      335.03911      320.05807      381.67225    
    319000   4501.5092      1546.091      -66699.194      5818.0754     -60881.118      186659.2       12.451455     -60700.993      337.67581      319.56129      385.11697    
    320000   4521.8596      1205.2342     -66634.316      5844.3777     -60789.938      186709.51      12.4481       -60649.486      335.95758      319.80863      389.01836    
    321000   4516.969       3390.279      -66489.542      5838.0569     -60651.485      187055.78      12.425057     -60255.667      333.70924      325.42366      389.69148    
    322000   4475.5307      403.3306      -66556.187      5784.499      -60771.688      187126.34      12.420372     -60724.581      337.46831      328.04485      386.60158    
    323000   4522.9851     -2306.1802     -66707.123      5845.8325     -60861.29       187251.07      12.412098     -61130.82       339.20828      330.56198      385.19642    
    324000   4439.0509     -2935.2273     -66654.256      5737.3498     -60916.906      187116.53      12.421023     -61259.709      332.20158      336.18595      387.99826    
    325000   4476.9562     -2728.1443     -66636.988      5786.3413     -60850.647      187140.36      12.419441     -61169.305      332.69103      340.87254      385.04791    
    326000   4483.4532     -1719.7682     -66710.005      5794.7386     -60915.267      186780.31      12.443382     -61115.756      329.1631       348.64643      380.89623    
    327000   4490.1428      4432.2478     -66723.196      5803.3847     -60919.812      186092.54      12.489371     -60405.007      336.0315       349.07139      373.06432    
    328000   4478.8807     -736.04557     -66592.233      5788.8288     -60803.404      187263.34      12.411285     -60889.434      341.72634      351.73127      371.81605    
    329000   4495.7636     -2426.1458     -66602.556      5810.6494     -60791.906      187305.01      12.408524     -61075.539      343.25137      347.12416      378.85781    
    330000   4446.1994      2601.4781     -66733.262      5746.5891     -60986.673      186557.1       12.45827      -60683.757      341.93659      351.20258      375.03678    
    331000   4459.9473      988.49796     -66624.83       5764.3578     -60860.472      186862.8       12.437889     -60745.183      351.88487      349.91503      370.9123     
    332000   4551.2696     -1346.7864     -66727.009      5882.3894     -60844.619      186799.77      12.442086     -61001.643      348.92504      355.72563      368.92077    
    333000   4472.4552      1288.2937     -66702.841      5780.524      -60922.317      186801.63      12.441962     -60772.112      352.53042      360.21558      363.28864    
    334000   4500.8181     -1081.4168     -66632.914      5817.1822     -60815.732      187134.22      12.419849     -60942.042      356.18239      360.88595      363.41743    
    335000   4508.5963      1006.0726     -66594.92       5827.2354     -60767.685      187112.85      12.421267     -60650.189      369.58102      356.61511      360.69458    
    336000   4502.5562      6270.9163     -66749.446      5819.4286     -60930.017      186099.72      12.488889     -60201.623      362.89944      359.58444      361.20508    
    337000   4553.9462      1754.6772     -66705.697      5885.8488     -60819.848      186565.62      12.457701     -60615.525      365.26969      360.33238      363.18629    
    338000   4515.2731      99.55323      -66672.167      5835.865      -60836.302      186981.02      12.430025     -60824.683      368.193        363.58993      362.49299    
    339000   4503.4876      614.16649     -66780.445      5820.6325     -60959.813      186521.26      12.460664     -60888.313      372.80997      360.97635      362.8488     
    340000   4558.6032     -1708.7884     -66684.736      5891.8678     -60792.868      187222.1       12.414019     -60992.548      371.61567      364.27626      367.53874    
    341000   4503.8278     -3577.7847     -66700.603      5821.0721     -60879.531      187127.03      12.420326     -61297.4        367.08795      359.83569      377.54954    
    342000   4508.8729     -1624.8917     -66692.086      5827.5928     -60864.493      187328.58      12.406963     -61054.478      367.00066      364.12121      377.53666    
    343000   4498.8213     -3071.3311     -66666.486      5814.6014     -60851.884      187119.38      12.420834     -61210.587      357.21267      371.79847      381.06407    
    344000   4437.2797     -1659.8239     -66618.814      5735.0606     -60883.753      187227.45      12.413665     -61077.717      358.07939      377.01463      378.45511    
    345000   4434.2354     -2370.8487     -66674.759      5731.1259     -60943.633      186980.95      12.430029     -61220.321      358.20969      384.59086      371.95908    
    346000   4500.5752     -1419.372      -66692.166      5816.8683     -60875.298      186885.34      12.436389     -61040.86       358.30116      386.75646      371.15292    
    347000   4526.6659     -4438.6063     -66590.983      5850.5898     -60740.393      187356.25      12.405131     -61259.437      353.49781      389.47775      377.63983    
    348000   4470.9346     -510.52849     -66551.55       5778.5587     -60772.991      187666.61      12.384615     -60832.791      352.82792      389.6683       382.74975    
    349000   4517.0331     -1610.97       -66569.874      5838.1397     -60731.735      187388.46      12.402998     -60920.151      357.30366      387.14208      382.2413     
    350000   4540.0376      1539.0395     -66712.461      5867.8723     -60844.589      186445.87      12.465702     -60665.49       354.14674      386.56492      386.55892    
    351000   4517.508       733.54822     -66622.304      5838.7534     -60783.55       186758.48      12.444836     -60698.044      355.95503      383.26173      393.58891    
    352000   4498.81        2004.8266     -66547.126      5814.5868     -60732.539      187216.61      12.414383     -60498.272      356.6615       387.56306      394.72606    
    353000   4425.8024      1516.8145     -66710.047      5720.2265     -60989.82       186419.37      12.467475     -60813.333      350.24149      388.31862      400.87453    
    354000   4500.6264      2069.1133     -66699.968      5816.9345     -60883.033      186519.59      12.460775     -60642.154      348.02932      401.38073      394.58024    
    355000   4476.8198      2344.6451     -66685.397      5786.165      -60899.232      186708.93      12.448139     -60626          345.13406      401.73214      402.9337     
    356000   4500.3339     -748.83094     -66726.838      5816.5564     -60910.282      186916.56      12.434312     -60997.644      346.67752      401.82751      405.52827    
    357000   4523.9091     -914.72857     -66690.314      5847.0268     -60843.287      187134.38      12.419838     -60950.127      355.16064      398.31357      401.67557    
    358000   4484.072      -3590.1511     -66761.165      5795.5383     -60965.626      187095.34      12.42243      -61384.869      358.86494      399.19028      398.36895    
    359000   4490.8022     -3191.127      -66607.671      5804.2369     -60803.434      187375.73      12.403841     -61176.638      353.72189      407.82953      400.19514    
    360000   4459.2873     -1679.6191     -66577.26       5763.5048     -60813.755      187336.2       12.406458     -61010.146      351.8474       413.09704      403.52504    
    361000   4526.7337      507.29193     -66671.441      5850.6774     -60820.763      186711.39      12.447975     -60761.645      349.86556      416.19877      405.6281     
    362000   4446.7318      1725.0687     -66664.581      5747.2773     -60917.303      186668.13      12.45086      -60716.317      351.81816      415.4607       406.48626    
    363000   4524.9411     -3486.0718     -66737.739      5848.3605     -60889.378      187360.08      12.404877     -61297.043      354.58864      414.14148      407.7153     
    364000   4444.1124     -4574.1069     -66704.267      5743.8917     -60960.376      187107.64      12.421613     -61494.555      354.55168      414.87203      411.17997    
    365000   4524.9152     -1436.0283     -66639.002      5848.327      -60790.675      187185.78      12.416428     -60958.449      355.37154      420.03632      408.40665    
    366000   4500.6685      539.3445      -66726.355      5816.9888     -60909.366      186714.35      12.447778     -60846.512      360.89464      410.85788      409.01363    
    367000   4525.5192      1344.7806     -66667.805      5849.1078     -60818.697      186757.05      12.444932     -60661.943      358.36652      416.26883      412.02425    
    368000   4525.7327      1964.7452     -66703.486      5849.3836     -60854.102      186402.37      12.468612     -60625.518      360.60422      416.53163      410.53425    
    369000   4543.9271      3285.529      -66641.481      5872.8994     -60768.582      186800.2       12.442057     -60385.517      363.64582      412.44912      414.94458    
    370000   4518.1505     -903.84509     -66660.999      5839.5838     -60821.415      187143.44      12.419237     -60926.99       360.49342      424.28818      413.26914    
    371000   4500.9258      4311.8068     -66692.17       5817.3215     -60874.849      186378.53      12.470206     -60373.264      361.57758      424.15519      413.04504    
    372000   4488.8935      381.53829     -66617.62       5801.7701     -60815.85       187371.29      12.404135     -60771.23       362.57879      431.41936      412.65916    
    373000   4486.3406      676.83271     -66633.146      5798.4704     -60834.676      186878.28      12.436859     -60755.73       365.78082      423.67007      416.10608    
    374000   4519.8966     -418.89681     -66668.818      5841.8407     -60826.977      187203.87      12.415228     -60875.923      371.96996      419.23943      415.37442    
    375000   4507.399      -4273.7337     -66724.192      5825.6879     -60898.504      187362.56      12.404713     -61398.285      368.26112      419.64333      423.43854    
    376000   4495.8784     -2621.8714     -66771.275      5810.7979     -60960.477      187048.76      12.425524     -61266.571      367.16261      419.89818      427.14167    
    377000   4473.7653      1172.4906     -66624.374      5782.2172     -60842.157      187247.58      12.41233      -60705.127      369.64603      414.19017      433.59891    
    378000   4600.7478     -3123.5712     -66749.097      5946.3386     -60802.758      187288.14      12.409642     -61167.892      376.85927      414.62938      427.38055    
    379000   4506.6299     -50.433821     -66656.358      5824.6939     -60831.665      186957.51      12.431588     -60837.55       381.93589      406.85066      430.00702    
    380000   4535.2271      1068.7005     -66580.674      5861.6549     -60719.02       187061.26      12.424693     -60594.244      390.33834      402.33174      430.47215    
    381000   4549.6102      702.75215     -66692.572      5880.2447     -60812.327      186930.23      12.433403     -60730.335      392.66896      400.19806      434.47632    
    382000   4474.4069      1445.6911     -66660.974      5783.0465     -60877.927      186580.24      12.456725     -60709.571      390.57488      405.20595      432.89601    
    383000   4563.7103      3133.7195     -66752.474      5898.4687     -60854.006      186586.51      12.456307     -60489.058      389.81361      403.57467      439.86629    
    384000   4519.0033     -4376.9444     -66533.662      5840.686      -60692.976      187625.27      12.387344     -61205.544      397.80673      400.80015      442.98874    
    385000   4509.1849      1277.0771     -66681.923      5827.9961     -60853.927      186868.95      12.43748      -60704.976      391.8428       408.02451      440.55981    
    386000   4506.6637     -2222.2445     -66507.129      5824.7375     -60682.391      187731.84      12.380312     -60942.778      398.14448      410.36573      437.04952    
    387000   4553.4016     -2880.9802     -66711.308      5885.1449     -60826.163      187182.74      12.41663      -61162.749      393.8972       414.02737      437.87811    
    388000   4468.4929      3399.9316     -66693.429      5775.4027     -60918.026      186479.68      12.463442     -60522.303      399.19501      405.98415      441.02379    
    389000   4543.7214      2278.0036     -66649.24       5872.6336     -60776.607      186817.4       12.440912     -60510.987      405.76195      404.83175      439.83836    
    390000   4510.6718     -52.418265     -66648.966      5829.9178     -60819.048      187227.66      12.413651     -60825.173      412.73736      404.38143      439.41294    
    391000   4460.7228      268.85319     -66692.026      5765.3602     -60926.666      187062.66      12.4246       -60895.276      415.43795      403.88522      438.92261    
    392000   4468.8164     -269.83929     -66691.02       5775.8209     -60915.199      186989.45      12.429465     -60946.692      407.68956      405.30246      449.29959    
    393000   4494.3356     -1667.927      -66655.631      5808.8038     -60846.827      187049.22      12.425493     -61041.552      409.32355      415.78119      438.60316    
    394000   4463.7914      2687.2667     -66635.064      5769.3262     -60865.737      186616.68      12.454293     -60552.733      404.93117      417.11682      444.78914    
    395000   4523.8801      1607.9282     -66833.498      5846.9892     -60986.508      186704.43      12.448439     -60799.134      411.30285      417.60555      441.86207    
    396000   4505.3934     -852.14573     -66673.664      5823.0957     -60850.569      186933         12.433218     -60949.992      409.92898      417.91431      449.07947    
    397000   4512.6967     -799.22913     -66592.302      5832.535      -60759.767      186846.81      12.438954     -60852.973      404.33172      419.7632       458.32946    
    398000   4532.8663      1943.1689     -66680.884      5858.6037     -60822.281      186758.81      12.444815     -60595.774      400.75464      420.36909      467.48327    
    399000   4545.7376      2796.0487     -66751.202      5875.2395     -60875.962      186563.13      12.457868     -60550.381      405.84215      421.97098      459.16911    
    400000   4576.6936      1927.5532     -66764.952      5915.2493     -60849.703      186626.74      12.453621     -60625.176      408.62575      419.07417      464.0635     
    401000   4523.65        1030.5315     -66612.672      5846.6918     -60765.98       186800.73      12.442022     -60645.829      412.8462       418.45476      463.8688     
    402000   4508.6221     -1781.6409     -66645.383      5827.2686     -60818.114      187138.96      12.419535     -61026.215      407.12324      427.36418      467.35113    
    403000   4469.5396     -615.76443     -66727.755      5776.7557     -60951          186716.3       12.447648     -61022.76       404.84915      434.16026      464.06704    
    404000   4532.8832      394.48398     -66594.129      5858.6255     -60735.503      186949.12      12.432146     -60689.473      411.24139      435.98551      458.38356    
    405000   4485.1573      2837.5        -66773.173      5796.9411     -60976.232      186617.33      12.454249     -60645.727      411.50123      437.39459      457.66735    
    406000   4511.7549      1038.3457     -66721.136      5831.3177     -60889.818      186678.69      12.450155     -60768.835      421.23239      438.77476      448.41653    
    407000   4501.8977     -656.56889     -66587.854      5818.5776     -60769.277      187000.25      12.428747     -60845.909      424.03527      433.9239       454.0364     
    408000   4559.6543      1968.2759     -66658.18       5893.2264     -60764.954      186799.36      12.442113     -60535.471      423.86586      436.86806      454.03418    
    409000   4491.7729     -877.58026     -66674.506      5805.4916     -60869.015      186959.12      12.431481     -60971.42       430.50087      425.24046      464.10157    
    410000   4414.4641     -3043.2765     -66709.626      5705.5721     -61004.054      187153.51      12.418569     -61359.546      435.917        421.901        467.86035    
    411000   4452.5912     -2859.4051     -66616.46       5754.8503     -60861.61       187360.08      12.404877     -61195.992      437.9779       420.49574      472.37029    
    412000   4457.2193     -1276.5129     -66699.652      5760.8319     -60938.82       186745.3       12.445715     -61087.607      431.27245      421.10075      478.97541    
    413000   4465.9957     -1099.6706     -66785.999      5772.1753     -61013.824      186598.53      12.455504     -61141.898      435.19914      426.13467      470.14928    
    414000   4489.5696      1792.7445     -66634.072      5802.6438     -60831.428      186922.23      12.433935     -60622.273      442.63017      431.51826      461.71744    
    415000   4528.429       2165.9331     -66612.335      5852.8685     -60759.466      186527.57      12.460242     -60507.305      439.32984      436.75246      461.38683    
    416000   4551.4438      799.37217     -66696.616      5882.6146     -60814.001      186756.8       12.444949     -60720.823      434.57798      448.97605      457.63838    
    417000   4472.9074     -886.63812     -66722.452      5781.1085     -60941.343      186975.25      12.430409     -61044.814      429.53135      457.58163      458.21972    
    418000   4431.4984     -1561.8228     -66697.68       5727.5885     -60970.092      186975.75      12.430375     -61152.358      434.19533      448.87723      466.95922    
    419000   4529.778      -2240.8935     -66649.027      5854.6121     -60794.415      187191.52      12.416047     -61056.231      428.491        460.18094      467.83303    
    420000   4496.0218      919.69432     -66693.21       5810.9832     -60882.227      186645.84      12.452347     -60775.087      431.74826      462.37084      461.7754     
    421000   4538.3096      3025.9042     -66692.833      5865.639      -60827.194      186684.74      12.449752     -60474.618      440.1965       459.20468      458.22866    
    422000   4505.9682      5252.1068     -66707.715      5823.8386     -60883.876      186303.99      12.475196     -60273.152      434.27707      464.94022      461.58081    
[...]
    899000   4497.2232     -1058.021      -66736.523      5812.5359     -60923.987      186930.07      12.433413     -61047.429      934.47605      882.67317      1204.4725    
    900000   4487.7331     -3579.0787     -66706.776      5800.2702     -60906.505      187337.07      12.406401     -61324.995      933.45402      876.70638      1227.3239    
    901000   4510.1267     -496.60511     -66705.71       5829.2133     -60876.497      186898.63      12.435504     -60934.427      927.151        884.46882      1223.2361    
    902000   4537.4574      1345.2614     -66604.461      5864.5375     -60739.923      186879.9       12.436751     -60583.01       946.04484      878.77893      1212.0443    
    903000   4540.591      -509.77554     -66708.264      5868.5876     -60839.676      186843.44      12.439177     -60899.126      936.58951      882.97423      1224.3175    
    904000   4490.4011      1962.6337     -66655.107      5803.7185     -60851.388      186800.84      12.442015     -60622.561      933.32343      892.14058      1218.5005    
    905000   4488.0859     -4882.9109     -66634.71       5800.7262     -60833.983      187813.65      12.374919     -61406.378      928.99064      900.35621      1233.482     
    906000   4513.0714     -3846.849      -66748.549      5833.0193     -60915.53       187222.35      12.414003     -61365.054      927.12253      892.71052      1248.408     
    907000   4448.4403      901.88938     -66737.222      5749.4854     -60987.737      186584.03      12.456472     -60882.706      908.18275      894.35792      1273.2909    
    908000   4497.2786     -1446.581      -66668.758      5812.6075     -60856.15       187312.05      12.408058     -61025.272      916.97599      902.99576      1263.9564    
    909000   4536.7401      397.30035     -66706.676      5863.6104     -60843.065      186541.67      12.4593       -60796.807      912.02011      899.91329      1271.27      
    910000   4494.2213      7584.1928     -66729.483      5808.6561     -60920.827      185761.55      12.511625     -60041.491      912.28309      901.55658      1261.175     
    911000   4496.8645     -253.98575     -66751.381      5812.0723     -60939.309      186945.73      12.432372     -60968.944      922.10863      914.14089      1247.3175    
    912000   4551.205       755.77749     -66806.084      5882.3059     -60923.778      186608.13      12.454864     -60835.751      918.79205      914.29989      1252.5591    
    913000   4493.6917     -1411.1179     -66742.729      5807.9716     -60934.757      186907.98      12.434882     -61099.376      923.03676      923.97881      1240.1957    
    914000   4449.2501     -2599.7087     -66702.02       5750.5321     -60951.488      187238.29      12.412946     -61255.303      927.98122      920.82146      1245.9731    
    915000   4449.2303      1293.7227     -66629.671      5750.5065     -60879.165      186994.3       12.429142     -60728.171      920.48289      929.23328      1244.3325    
    916000   4506.0542     -1980.2341     -66655.459      5823.9498     -60831.509      187228.65      12.413585     -61062.917      920.48152      936.5077       1241.9231    
    917000   4519.16        164.633       -66552.196      5840.8887     -60711.307      187307.93      12.40833      -60692.06       913.86429      937.0839       1255.6543    
    918000   4437.1704     -3459.4436     -66573.529      5734.9193     -60838.61       187405.55      12.401868     -61243.259      898.02619      941.34355      1280.0116    
    919000   4528.2327     -3328.465      -66700.969      5852.6148     -60848.354      187270.9       12.410784     -61237.403      907.53464      934.98481      1272.5285    
    920000   4490.2512     -2142.2501     -66597.205      5803.5248     -60793.68       187300.26      12.408839     -61044.117      886.83378      948.97923      1289.8803    
    921000   4484.5139      2878.6651     -66686.232      5796.1095     -60890.122      186645.2       12.452389     -60554.773      883.92698      934.43423      1314.0962    
    922000   4522.6142     -4066.6055     -66564.702      5845.3531     -60719.349      187719.09      12.381153     -61195.813      886.55912      936.30748      1327.2632    
    923000   4493.1703     -601.04335     -66673.763      5807.2976     -60866.465      186792.53      12.442568     -60936.539      885.32783      927.62159      1332.1294    
    924000   4505.4654     -1885.2888     -66635.125      5823.1887     -60811.936      187322.45      12.407369     -61032.359      882.281        928.2369       1350.8456    
    925000   4472.5501     -1841.6065     -66696.622      5780.6466     -60915.976      187197.96      12.41562      -61131.149      883.17232      919.39711      1368.4693    
    926000   4497.587      -3236.9767     -66775.855      5813.0062     -60962.849      187151.19      12.418723     -61340.962      885.09623      927.42342      1355.5644    
    927000   4504.0334     -1400.2783     -66717.194      5821.3379     -60895.856      186946.96      12.43229      -61059.245      891.33161      931.88361      1340.1122    
    928000   4516.4035     -31.611979     -66631.2        5837.3259     -60793.875      186988.71      12.429514     -60797.564      889.78983      942.96686      1330.7789    
    929000   4527.212      -137.50929     -66723.432      5851.2956     -60872.136      186775.94      12.443673     -60888.167      883.13696      958.44504      1321.2196    
    930000   4466.9197      2870.487      -66622.201      5773.3695     -60848.832      186714.4       12.447774     -60514.311      881.20511      976.47168      1302.2107    
    931000   4553.27       -4475.1125     -66664.478      5884.9748     -60779.504      187373.23      12.404007     -61302.864      883.32656      965.74446      1332.7424    
    932000   4475.1867      72.93311      -66761.737      5784.0544     -60977.683      186786.83      12.442947     -60969.18       897.09488      963.87152      1305.6605    
    933000   4483.3186      1068.1949     -66696.12       5794.5646     -60901.556      186623.61      12.45383      -60777.131      906.13716      965.59105      1291.1962    
    934000   4516.3286      1488.4062     -66674.205      5837.2292     -60836.976      186961.1       12.431349     -60663.291      914.11592      969.81555      1279.5205    
    935000   4493.2775      1748.9191     -66752.426      5807.4362     -60944.99       186529.6       12.460107     -60741.376      923.32141      954.48419      1281.7029    
    936000   4513.386       3034.3004     -66686.323      5833.4259     -60852.897      186300.75      12.475413     -60500.069      915.4308       959.82669      1287.6669    
    937000   4492.0358      4756.2176     -66633.519      5805.8314     -60827.687      186432.76      12.466579     -60274.244      918.61885      968.39979      1277.0681    
    938000   4486.6595     -1864.8384     -66716.53       5798.8827     -60917.647      187048.94      12.425512     -61135.361      915.93606      968.21245      1292.664     
    939000   4549.3586     -2970.8529     -66643.482      5879.9194     -60763.563      187361.96      12.404752     -61110.981      901.81487      983.51477      1302.9769    
    940000   4515.6447     -265.41822     -66815.931      5836.3452     -60979.586      186531.94      12.45995      -61010.487      902.54353      981.2617       1297.1711    
    941000   4511.2659      3242.6688     -66587.546      5830.6857     -60756.861      187001.13      12.428689     -60378.386      902.16714      988.71676      1299.6727    
    942000   4514.1986      5239.4505     -66660.916      5834.4762     -60826.439      186423.7       12.467185     -60216.795      912.7077       973.02139      1299.7355    
    943000   4489.2786      3793.9339     -66662.43       5802.2677     -60860.163      186680.68      12.450023     -60418.105      904.35607      974.11545      1321.0129    
    944000   4453.8554      778.17512     -66673.634      5756.4842     -60917.15       186704.94      12.448405     -60826.468      904.68155      968.73656      1334.1534    
    945000   4490.4714      403.09431     -66633.121      5803.8095     -60829.311      186837.49      12.439574     -60782.305      909.70469      977.89699      1318.3053    
    946000   4551.8366      2482.1643     -66632.238      5883.1222     -60749.116      186965.09      12.431084     -60459.461      897.74309      998.23939      1317.5638    
    947000   4481.3976      630.50744     -66683.789      5792.0818     -60891.707      186739.51      12.446101     -60818.219      899.96656      1006.0477      1302.3637    
    948000   4489.2483     -931.07667     -66727.834      5802.2286     -60925.606      186765.24      12.444386     -61034.141      898.34138      1011.6164      1302.983     
    949000   4540.6474      2373.1711     -66660.398      5868.6605     -60791.738      186951.97      12.431956     -60514.821      904.51837      994.43851      1328.0563    
    950000   4548.211       668.04544     -66662.389      5878.4362     -60783.952      187156.59      12.418365     -60705.915      910.65866      992.88277      1329.1132    
    951000   4476.7348     -4333.8164     -66520.131      5786.0552     -60734.076      187866.3       12.371451     -61242.246      906.336        989.06598      1360.9774    
    952000   4439.102      -4120.2921     -66786.56       5737.4158     -61049.144      186782.9       12.44321      -61529.491      898.74517      990.4997       1363.8749    
    953000   4513.8716     -136.49276     -66698.444      5834.0534     -60864.391      186950.38      12.432062     -60880.318      894.01494      995.50073      1374.8835    
    954000   4453.7091      746.99241     -66743.825      5756.2952     -60987.53       186510.6       12.461376     -60900.572      885.22196      997.7312       1392.4226    
    955000   4474.1428     -1720.8741     -66592.025      5782.7051     -60809.32       187429.57      12.400278     -61010.635      891.07626      1014.4694      1372.9376    
    956000   4415.9401     -3854.9663     -66610.74       5707.4797     -60903.26       187552.3       12.392163     -61354.526      897.56064      1010.9288      1374.9344    
    957000   4505.2274     -2994.301      -66694.224      5822.8811     -60871.343      187479.51      12.396975     -61221.722      892.50341      1022.9803      1367.3058    
    958000   4506.0141      52.933048     -66645.968      5823.8979     -60822.071      186970.5       12.430724     -60815.893      888.59997      1024.3804      1372.8714    
    959000   4499.1874      1178.1373     -66802.079      5815.0746     -60987.004      186572.96      12.457211     -60849.811      884.82419      1012.0864      1403.439     
    960000   4463.418      -3314.1545     -66608.188      5768.8437     -60839.344      187394.63      12.40259      -61226.976      884.77716      1004.0975      1437.1272    
    961000   4504.8309     -1871.1393     -66772.329      5822.3687     -60949.961      186586.67      12.456295     -61167.87       896.09275      987.20813      1430.7824    
    962000   4438.4139     -1952.3495     -66696.503      5736.5266     -60959.976      187077.1       12.423641     -61187.941      887.88951      996.55316      1445.6337    
    963000   4466.0682     -2541.473      -66660.923      5772.269      -60888.654      187213.24      12.414607     -61185.624      883.15831      1008.8793      1445.3802    
    964000   4551.4182     -571.49612     -66788.007      5882.5815     -60905.425      186667.39      12.450909     -60972.009      878.92522      1015.5092      1443.0552    
    965000   4522.6118     -1068.0006     -66653.81       5845.35       -60808.46       187247.62      12.412327     -60933.278      875.69659      1031.3964      1441.2305    
    966000   4513.8628      310.89988     -66641.349      5834.0421     -60807.307      186816.75      12.440955     -60771.055      881.5837       1031.8318      1425.5167    
    967000   4525.1014     -1306.4981     -66689.159      5848.5678     -60840.591      187276.41      12.410419     -60993.306      879.12581      1034.4979      1442.2381    
    968000   4489.2248      3871.287      -66681.243      5802.1982     -60879.045      186604.27      12.455121     -60428.159      886.29865      1021.0901      1439.5373    
    969000   4541.4008      3587.0569     -66623.602      5869.6343     -60753.968      186785.42      12.443042     -60335.781      889.06592      1026.7402      1430.5299    
    970000   4506.1182      2459.9954     -66626.689      5824.0324     -60802.657      186695.91      12.449007     -60516.002      891.44126      1023.4138      1436.5821    
    971000   4535.7961     -1999.7772     -66613.667      5862.3903     -60751.277      187281.96      12.410052     -60985.035      895.08869      1036.3737      1421.0914    
    972000   4543.4894     -1935.5483     -66608.811      5872.3337     -60736.477      187545.35      12.392622     -60963.046      891.63021      1050.2755      1416.9567    
    973000   4552.6955      7710.7081     -66768.014      5884.2324     -60883.781      185989.13      12.496315     -59988.682      891.18567      1043.8882      1408.7851    
    974000   4534.5052      2646.482      -66646.094      5860.7218     -60785.372      186762.41      12.444575     -60476.877      891.67226      1061.9297      1400.2761    
    975000   4459.4173      3404.9055     -66685.446      5763.6729     -60921.773      186385.35      12.46975      -60525.672      891.03178      1061.8569      1404.4387    
    976000   4468.5917     -141.64679     -66688.129      5775.5304     -60912.599      186683.77      12.449817     -60929.103      894.03122      1070.5264      1391.8412    
    977000   4456.6707     -1354.2476     -66718.732      5760.1229     -60958.609      186592.54      12.455904     -61116.328      901.26474      1059.8373      1397.5704    
    978000   4478.3052      1376.051      -66713.739      5788.0849     -60925.654      186393.64      12.469195     -60765.567      891.2771       1054.0235      1427.8652    
    979000   4493.1147      1574.685      -66607.374      5807.2258     -60800.149      186968.17      12.430879     -60616.388      892.26257      1059.2723      1434.7636    
    980000   4515.6803      1430.2964     -66851.608      5836.3912     -61015.217      186356.74      12.471664     -60848.853      886.31381      1054.8047      1457.6801    
    981000   4486.7768     -3412.1616     -66673.146      5799.0343     -60874.112      187317.95      12.407667     -61273.043      891.86942      1052.9896      1467.7274    
    982000   4482.4864     -820.50109     -66612.569      5793.489      -60819.08       187070.42      12.424085     -60914.882      896.11042      1064.7391      1438.4302    
    983000   4435.671      -2662.8132     -66675.567      5732.9814     -60942.585      187199.05      12.415548     -61253.71       893.81442      1060.4122      1457.3848    
    984000   4519.9981     -1944.006      -66718.964      5841.9718     -60876.992      187027.2       12.426956     -61103.922      891.65478      1052.5423      1476.8292    
    985000   4501.0859     -3032.5017     -66782.009      5817.5284     -60964.48       187137.35      12.419641     -61318.682      902.0557       1036.1147      1478.1551    
    986000   4478.7718     -2024.7692     -66672.115      5788.688      -60883.427      187053.37      12.425217     -61119.818      909.20363      1026.0259      1480.966     
    987000   4422.5067     -1873.7141     -66562.208      5715.9669     -60846.241      187570.63      12.390952     -61065.602      915.22411      1023.4078      1484.398     
    988000   4458.5426      568.96354     -66663.065      5762.5423     -60900.523      186782.04      12.443266     -60834.193      923.35054      1022.4764      1456.2735    
    989000   4532.8231      1855.4427     -66718.562      5858.5478     -60860.014      186449.93      12.465431     -60644.091      929.93416      1027.1508      1434.8522    
    990000   4533.8097     -234.71613     -66642.847      5859.8229     -60783.024      187007.12      12.42829      -60810.42       936.60091      1018.3852      1452.4666    
    991000   4465.4927     -2322.0431     -66641.661      5771.5252     -60870.136      187364.93      12.404556     -61141.685      939.58409      1025.7947      1445.0386    
    992000   4493.1277     -2350.7616     -66792.217      5807.2426     -60984.974      186891.03      12.43601      -61259.186      942.01194      1023.3334      1440.463     
    993000   4479.8317     -1857.7097     -66667.515      5790.0579     -60877.457      187053.24      12.425226     -61094.343      946.2716       1026.3138      1432.2463    
    994000   4488.6902     -5075.4945     -66610.678      5801.5072     -60809.171      187832.8       12.373658     -61404.201      949.6112       1029.4626      1436.8579    
    995000   4517.9209     -333.11906     -66483.911      5839.2872     -60644.624      187558.18      12.391775     -60683.621      939.07353      1038.1384      1441.6896    
    996000   4498.6131      2553.7476     -66729.328      5814.3323     -60914.995      186355.89      12.471721     -60617.958      947.41079      1022.8146      1436.0596    
    997000   4424.0998     -4170.6205     -66551.301      5718.026      -60833.275      187622.23      12.387544     -61321.674      957.26984      1034.5824      1422.9014    
    998000   4487.6747     -4500.2699     -66725.848      5800.1948     -60925.654      187336.26      12.406455     -61451.853      962.42666      1030.9585      1419.7122    
    999000   4519.682      -4469.3266     -66543.647      5841.5633     -60702.084      187776.8       12.377348     -61225.894      976.44429      1037.0112      1395.9837    
   1000000   4519.9598     -2074.3678     -66721.627      5841.9223     -60879.705      186853.57      12.438503     -61121.628      977.87062      1041.9117      1375.6554    
   1001000   4519.784      -2339.185      -66800.434      5841.6951     -60958.739      186952.23      12.431939     -61231.69       982.7797       1031.5568      1389.3638    
   1002000   4528.0792     -796.89587     -66659.611      5852.4164     -60807.194      186867.56      12.437572     -60900.139      986.65691      1043.1189      1364.426     
   1002307   4452.607      -1489.136      -66728.313      5754.8707     -60973.442      186774.92      12.443741     -61147.039      983.83542      1046.2383      1364.9961    
Loop time of 962.16 on 40 procs for 1000000 steps with 10000 atoms

Performance: 89.798 ns/day, 0.267 hours/ns, 1039.328 timesteps/s, 10.393 Matom-step/s
95.5% CPU use with 40 MPI tasks x 1 OpenMP threads

MPI task timing breakdown:
Section |  min time  |  avg time  |  max time  |%varavg| %total
---------------------------------------------------------------
Pair    | 666.59     | 675.23     | 690.63     |  21.0 | 70.18
Neigh   | 12.216     | 12.317     | 12.428     |   1.7 |  1.28
Comm    | 159.19     | 173.18     | 182.33     |  41.3 | 18.00
Output  | 0.16498    | 0.50811    | 1.365      |  33.5 |  0.05
Modify  | 83.302     | 85.759     | 88.323     |  12.7 |  8.91
Other   |            | 15.16      |            |       |  1.58

Nlocal:            250 ave         265 max         236 min
Histogram: 1 1 2 7 11 10 3 3 1 1
Nghost:        1398.92 ave        1420 max        1379 min
Histogram: 2 2 2 7 7 9 6 3 0 2
Neighs:        10650.5 ave       11311 max        9968 min
Histogram: 1 1 4 6 9 8 5 2 2 2

Total # of neighbors = 426018
Ave neighs/atom = 42.6018
Neighbor list builds = 27212
Dangerous builds = 0
	unfix           feq

write_data	liq_or_sol.data nocoeff
System init for write_data ...






Total wall time: 0:16:06
