

# Styles
	units        metal
	atom_style   atomic
	pair_style   eam/fs

# Neighbour list
	neighbor        2.0 bin
	neigh_modify    check yes


# Boundary conditions
	boundary p p p


# ----------------- Atom Definition Section -----------------

read_data "solid.data"
Reading data file ...
  orthogonal box = (-0.016319894 -0.026116788 -0.077393605) to (31.66632 31.676117 79.202394)
  2 by 2 by 10 MPI processor grid
  reading atom labelmap ...
  reading atoms ...
  5000 atoms
  reading velocities ...
  5000 velocities
  read_data CPU = 0.068 seconds

read_data "liquid.data" add append shift 37 0 0
Reading data file ...
WARNING: Non-zero image flags with growing box leads to bad coordinates (src/read_data.cpp:589)
  orthogonal box = (-0.016319894 -0.026116788 -0.077393605) to (68.66632 31.676117 79.202394)
  4 by 2 by 5 MPI processor grid
  reading atom labelmap ...
  reading atoms ...
  5000 atoms
  reading velocities ...
  5000 velocities
  read_data CPU = 0.076 seconds

# ----------------- Settings Section -----------------

include "coexistence.in.settings"
# ----- SETTINGS -----
# Forcefield
	pair_coeff * * W-Mo.eam.fs W Mo

# Collection of atoms
	group alloy type  1 2
10000 atoms in group alloy


# ----------------- Run Section -----------------

include "coexistence.in.run"
# Thermo output
	compute msd all msd

	thermo          1000
	thermo_style    custom step temp press pe ke etotal vol density enthalpy c_msd[1] c_msd[2] c_msd[3]
	thermo_modify   flush yes

# Dump configuration
	dump            d1 all custom 25000 coexistence_W-Mo.dump id type element x y z xu yu zu vx vy vz
	dump_modify     d1 element W Mo


# ----- EQUILIBRATION AT Ti -----
	minimize 1e-25 1e-25 5000 10000
Neighbor list info ...
  update: every = 1 steps, delay = 0 steps, check = yes
  max neighbors/atom: 2000, page size: 100000
  master list distance cutoff = 7.3
  ghost atom cutoff = 7.3
  binsize = 3.65, bins = 19 9 22
  1 neighbor lists, perpetual/occasional/extra = 1 0 0
  (1) pair eam/fs, perpetual
      attributes: half, newton on
      pair build: half/bin/atomonly/newton
      stencil: half/bin/3d
      bin: standard
Per MPI rank memory allocation (min/avg/max) = 4.855 | 4.862 | 4.87 Mbytes
   Step          Temp          Press          PotEng         KinEng         TotEng         Volume        Density        Enthalpy       c_msd[1]       c_msd[2]       c_msd[3]   
         0   3147.3145      737794.18     -12116.362      4067.8164     -8048.5456      172623.26      13.463879      71443.593      0              0              0            
      1000   3147.3145      10128.626     -76235.047      4067.8164     -72167.23       172623.26      13.463879     -71075.942      0.54472029     0.202136       0.20734378   
      2000   3147.3145     -180.17847     -76281.213      4067.8164     -72213.397      172623.26      13.463879     -72232.81       0.70364905     0.21621516     0.21542002   
      2307   3147.3145     -272.33714     -76281.705      4067.8164     -72213.888      172623.26      13.463879     -72243.231      0.70611361     0.21605454     0.21504173   
Loop time of 3.99845 on 40 procs for 2307 steps with 10000 atoms

95.6% CPU use with 40 MPI tasks x 1 OpenMP threads

Minimization stats:
  Stopping criterion = energy tolerance
  Energy initial, next-to-last, final = 
       -12116.36204945   -76281.704776988   -76281.704776988
  Force two-norm initial, final = 224306.09 4.4897918e-05
  Force max component initial, final = 94125.607 1.3486957e-05
  Final line search alpha, max atom move = 1 1.3486957e-05
  Iterations, force evaluations = 2307 4350

MPI task timing breakdown:
Section |  min time  |  avg time  |  max time  |%varavg| %total
---------------------------------------------------------------
Pair    | 2.5818     | 2.771      | 3.0482     |   8.9 | 69.30
Neigh   | 0.020429   | 0.023246   | 0.026746   |   1.4 |  0.58
Comm    | 0.62268    | 0.83132    | 1.0272     |  13.2 | 20.79
Output  | 0.0001766  | 0.00020548 | 0.001217   |   0.0 |  0.01
Modify  | 0          | 0          | 0          |   0.0 |  0.00
Other   |            | 0.3727     |            |       |  9.32

Nlocal:            250 ave         278 max         230 min
Histogram: 4 8 5 5 8 0 0 1 4 5
Nghost:        1459.78 ave        1553 max        1344 min
Histogram: 6 4 0 6 4 0 0 2 12 6
Neighs:        12457.9 ave       15369 max       10337 min
Histogram: 8 2 2 15 3 0 0 0 4 6

Total # of neighbors = 498316
Ave neighs/atom = 49.8316
Neighbor list builds = 48
Dangerous builds = 0

	fix             feq all npt temp ${Ti} ${Ti} ${tdamp} aniso ${press} ${press} ${pdamp}
	fix             feq all npt temp 4000 ${Ti} ${tdamp} aniso ${press} ${press} ${pdamp}
	fix             feq all npt temp 4000 4000 ${tdamp} aniso ${press} ${press} ${pdamp}
	fix             feq all npt temp 4000 4000 0.1 aniso ${press} ${press} ${pdamp}
	fix             feq all npt temp 4000 4000 0.1 aniso 1 ${press} ${pdamp}
	fix             feq all npt temp 4000 4000 0.1 aniso 1 1 ${pdamp}
	fix             feq all npt temp 4000 4000 0.1 aniso 1 1 1
	run             1000000    # 1 ns
Per MPI rank memory allocation (min/avg/max) = 5.007 | 5.013 | 5.021 Mbytes
   Step          Temp          Press          PotEng         KinEng         TotEng         Volume        Density        Enthalpy       c_msd[1]       c_msd[2]       c_msd[3]   
      2307   3147.3145     -272.33714     -76281.705      4067.8164     -72213.888      172623.26      13.463879     -72243.231      0.70611361     0.21605454     0.21504173   
      3000   2819.1353     -3371.1855     -71789.855      3643.654      -68146.201      178130.3       13.047633     -68521.01       2.7633077      0.47976663     0.47203828   
      4000   3978.958       689.28025     -68672.979      5142.6926     -63530.287      186934.82      12.433097     -63449.865      14.244606      1.8169448      1.9474754    
      5000   3977.4567      976.2204      -68913.997      5140.7521     -63773.245      185215.62      12.548503     -63660.391      14.373998      3.1374645      3.1041126    
      6000   4008.0215     -638.96884     -69262.26       5180.2563     -64082.004      182709.6       12.720617     -64154.871      8.6337123      4.3277672      4.3508113    
      7000   3948.7458      604.97714     -69490.089      5103.6442     -64386.445      181779.65      12.785693     -64317.806      7.6544853      5.2027737      5.2514936    
      8000   3973.2209      1999.7306     -69584.293      5135.2775     -64449.016      180792.57      12.855499     -64223.362      6.9337307      5.982413       6.1653578    
      9000   4048.9445      1758.8178     -69808.591      5233.1482     -64575.443      179911.13      12.918482     -64377.942      7.031892       6.9692837      6.7281517    
     10000   3922.526       2886.9695     -69868.951      5069.7557     -64799.195      179351.01      12.958827     -64476.021      7.7213748      7.4597319      7.5636506    
     11000   3961.2334     -6366.1376     -69904.502      5119.784      -64784.718      179970.38      12.914229     -65499.818      8.0960952      7.9321706      8.3698518    
     12000   3972.421       44.613913     -70021.231      5134.2436     -64886.987      179060.17      12.979876     -64882.001      9.0625336      8.7253431      8.4566549    
     13000   4033.4476     -4749.0126     -70058.989      5213.1188     -64845.87       179254.23      12.965823     -65377.198      9.1786164      8.7938575      9.0995417    
     14000   3981.8062      3037.1563     -70099.356      5146.3737     -64952.982      178435.49      13.025317     -64614.732      9.526946       9.1017231      9.1590543    
     15000   4003.1805      12.427077     -70189.708      5173.9995     -65015.708      178528.24      13.01855      -65014.323      10.511882      9.6268684      9.9056485    
     16000   3968.4516     -1473.2794     -70274.998      5129.1133     -65145.885      178234.08      13.040035     -65309.779      10.766802      9.9276419      10.08907     
     17000   3974.2401     -2132.4597     -70310.945      5136.5949     -65174.35       178376.15      13.029649     -65411.765      11.444131      10.157806      11.005495    
     18000   4059.5943     -1393.2954     -70307.512      5246.9128     -65060.6        178266.78      13.037643     -65215.625      11.915384      10.675946      11.052729    
     19000   4074.4196      4181.5128     -70332.526      5266.074      -65066.452      177601.45      13.086485     -64602.931      12.817356      10.8776        11.208714    
     20000   3956.2374      1515.0838     -70364.581      5113.3268     -65251.255      177968.89      13.059466     -65082.96       12.636591      10.960262      11.615227    
     21000   3972.6197     -1012.428      -70435.281      5134.5005     -65300.781      177683.36      13.080452     -65413.06       12.884174      11.541566      11.434707    
     22000   4055.2576      5207.2636     -70416.22       5241.3076     -65174.912      177402.81      13.101139     -64598.332      13.466298      11.097593      12.36797     
     23000   4030.5903      2529.7806     -70343.683      5209.4259     -65134.257      177524.83      13.092133     -64853.952      12.703264      11.71405       11.663753    
     24000   3991.1399     -1961.9904     -70395.447      5158.4373     -65237.009      178064.77      13.052434     -65455.064      12.494528      11.746425      12.272966    
     25000   3987.8378     -594.31052     -70482.859      5154.1695     -65328.69       177591.38      13.087227     -65394.565      14.341125      12.012709      12.945385    
     26000   4004.3536     -849.04749     -70531.223      5175.5156     -65355.707      177672.43      13.081257     -65449.862      14.229937      12.267491      13.14165     
     27000   3993.9488     -1700.3197     -70525.302      5162.0678     -65363.235      177718.54      13.077863     -65551.84       14.171683      12.194291      13.702802    
     28000   4021.2331      1691.6409     -70519.971      5197.3319     -65322.639      177204.44      13.115804     -65135.54       14.752215      12.891972      13.182708    
     29000   3968.2454     -910.60762     -70657.951      5128.8469     -65529.104      177271.39      13.110851     -65629.858      15.026489      13.173666      13.334624    
     30000   3976.38        3769.0466     -70604.9        5139.3606     -65465.539      176857.81      13.141511     -65049.489      15.605953      12.854715      14.09229     
     31000   3929.5063      207.49633     -70556.999      5078.7776     -65478.221      177127.78      13.12148      -65455.281      16.667258      13.413735      13.941896    
     32000   4030.7772      2892.7895     -70872.348      5209.6675     -65662.681      176369.49      13.177895     -65344.239      15.359852      13.299719      13.484121    
     33000   4010.7649      1561.4402     -70888.219      5183.8021     -65704.417      176474.25      13.170073     -65532.43       16.843269      13.425755      14.099838    
     34000   3986.1319     -1537.7781     -70920.831      5151.9646     -65768.866      176687.73      13.154161     -65938.452      17.453799      13.589449      14.56418     
     35000   3927.9657     -1181.0019     -70790.36       5076.7864     -65713.574      176939.48      13.135445     -65844          16.020991      13.649098      14.497712    
     36000   4079.8589      4555.0028     -70883.616      5273.1042     -65610.512      176256.29      13.186359     -65109.414      17.55528       14.049524      14.679158    
     37000   4015.6425      461.62739     -70936.811      5190.1063     -65746.705      176411.13      13.174785     -65695.877      17.288282      14.021814      15.001532    
     38000   4034.7668     -3844.4906     -70826.645      5214.8239     -65611.821      176949.15      13.134727     -66036.418      17.867308      14.458433      15.219309    
     39000   3938.8481     -4771.7378     -70982.978      5090.8517     -65892.126      176643.5       13.157454     -66418.221      16.792423      14.410327      14.896673    
     40000   3988.3598      1194.0195     -71219.711      5154.8442     -66064.867      175719.14      13.226668     -65933.912      20.405279      14.869976      15.445974    
     41000   3980.7287     -743.5902      -71365.263      5144.9811     -66220.282      175405.61      13.25031      -66301.69       19.75607       14.686041      15.402739    
     42000   3979.4877     -3685.6442     -71485.433      5143.3772     -66342.055      175341.12      13.255184     -66745.41       19.660676      14.81235       15.221064    
     43000   4026.825       2954.8801     -71696.396      5204.5594     -66491.837      174410.25      13.32593      -66170.173      23.14549       14.968777      15.681334    
     44000   4005.3092      1411.6389     -71719.087      5176.7508     -66542.336      174386.32      13.327758     -66388.689      21.595102      14.708032      15.676545    
     45000   3946.4262     -4893.4529     -71939.484      5100.6461     -66838.838      174365.12      13.329379     -67371.393      22.396962      14.955546      15.581646    
     46000   4042.6192      2156.9838     -71945.381      5224.9729     -66720.408      173803.44      13.372456     -66486.419      24.933868      15.175309      15.704773    
     47000   4015.9218      1156.9955     -72021.254      5190.4672     -66830.787      173827.43      13.37061      -66705.259      23.740849      15.099591      15.568792    
     48000   4025.8206     -1207.9553     -72074.085      5203.2612     -66870.823      173880.24      13.366549     -67001.92       22.997174      15.076536      15.470624    
     49000   4012.8694     -93.719729     -71994.002      5186.5221     -66807.48       173893.61      13.365521     -66817.651      26.019883      15.038868      16.245257    
     50000   4001.1522      582.43092     -71955.864      5171.3779     -66784.486      173901.51      13.364914     -66721.269      23.411451      15.001599      15.762769    
     51000   3962.4109      1691.3282     -72031.613      5121.3059     -66910.307      173753.73      13.376281     -66726.885      24.319591      15.361971      15.441879    
     52000   4035.1048     -3639.3805     -71944.789      5215.2608     -66729.529      174356.49      13.330039     -67125.583      23.873396      14.757613      16.509545    
     53000   4032.4091     -302.82717     -72007.008      5211.7766     -66795.231      173943.62      13.361678     -66828.109      22.946128      15.130257      15.60876     
     54000   4029.6322      1291.568      -71972.089      5208.1875     -66763.902      173928.8       13.362817     -66623.692      25.414457      15.499257      15.681922    
     55000   4004.8499      1288.9447     -71988.627      5176.1571     -66812.469      173826.33      13.370695     -66672.627      22.312257      14.598851      16.045372    
     56000   4008.0282     -1922.4421     -71936.13       5180.2649     -66755.865      174118.23      13.348279     -66964.788      24.482917      15.211533      16.02526     
     57000   3969.959      -1521.3853     -72046.491      5131.0617     -66915.429      173884.05      13.366256     -67080.545      22.694419      15.076674      15.640737    
     58000   4028.9971     -635.0612      -72073.248      5207.3667     -66865.881      173767.75      13.375202     -66934.758      23.629437      15.050782      15.796306    
     59000   3989.1229      1652.7041     -72168.937      5155.8305     -67013.107      173581.36      13.389564     -66834.051      25.151231      15.324514      15.791838    
     60000   3967.8743      1969.5194     -72025.45       5128.3672     -66897.083      173661.26      13.383404     -66683.605      23.122304      14.966146      15.834916    
     61000   3972.1133      1942.1845     -72078.366      5133.846      -66944.52       173655.29      13.383864     -66734.012      24.500415      15.296543      15.809139    
     62000   3925.2845     -3508.472      -72028.145      5073.3211     -66954.824      174069.09      13.352047     -67336.003      24.514226      15.23602       16.118971    
     63000   3953.4699      1765.05       -72041.079      5109.7498     -66931.329      173704.52      13.38007      -66739.966      22.809111      15.171729      15.593861    
     64000   4058.1122      309.22687     -72129.014      5244.9971     -66884.017      173654.73      13.383907     -66850.501      24.750647      15.151891      16.061585    
     65000   3999.5464      2735.5301     -72002.219      5169.3025     -66832.916      173613.29      13.387101     -66536.491      23.814799      15.045445      16.029364    
     66000   4002.0179     -1152.8745     -72025.956      5172.4969     -66853.459      173904.2       13.364707     -66978.595      23.640314      15.209851      15.883129    
     67000   4049.3865      3199.4077     -72176.16       5233.7194     -66942.441      173450.99      13.399628     -66596.074      23.311879      14.981057      15.902606    
     68000   3977.6006     -57.150273     -72224.024      5140.9382     -67083.086      173523.73      13.394011     -67089.275      23.855401      15.134015      15.851099    
     69000   4001.5277      1783.6931     -72120.188      5171.8633     -66948.325      173437.25      13.40069      -66755.238      25.805407      15.248757      16.171223    
     70000   4023.5567     -4469.4085     -72167.384      5200.3352     -66967.048      173941.51      13.36184      -67452.273      22.361787      15.154733      15.759649    
     71000   3972.6329     -5204.4553     -72022.119      5134.5175     -66887.602      174094.78      13.350077     -67453.126      23.377708      15.148151      16.002511    
     72000   4011.9039      1875.0859     -72126.124      5185.2742     -66940.85       173474.89      13.397782     -66737.826      24.808873      15.330293      15.817179    
     73000   3985.7356      2208.1663     -72151.043      5151.4524     -66999.591      173383.07      13.404877     -66760.629      23.927298      15.220927      15.805033    
     74000   4039.6501      1182.4768     -72083.25       5221.1354     -66862.115      173647.74      13.384445     -66733.955      22.748224      15.259702      15.522592    
     75000   3997.6692     -566.43396     -72126.24       5166.8762     -66959.364      173750.95      13.376495     -67020.792      24.283846      15.200754      16.087276    
     76000   3948.5386     -3647.8782     -72072.746      5103.3763     -66969.37       173962.99      13.360191     -67365.453      24.55638       15.454939      15.859316    
     77000   4047.5389      3561.0398     -72041.194      5231.3314     -66809.862      173668.56      13.382841     -66423.862      24.677545      15.100642      16.322043    
     78000   3990.6804     -349.70312     -72112.53       5157.8434     -66954.686      173706.13      13.379946     -66992.601      23.994263      15.419697      15.770366    
     79000   4036.2583     -3897.547      -72146.825      5216.7516     -66930.073      173997.13      13.35757      -67353.349      23.878683      15.404363      15.961808    
     80000   4017.6367      7829.7974     -72159.249      5192.6837     -66966.565      173074.1       13.428807     -66120.756      25.320561      15.383903      15.815192    
     81000   3968.8997     -454.53998     -72029.322      5129.6925     -66899.63       173764.77      13.375431     -66948.927      24.315512      15.312629      16.13712     
     82000   4005.1644     -1614.1326     -72108.651      5176.5636     -66932.088      173804.42      13.37238      -67107.189      24.865106      15.426027      16.129379    
     83000   4038.9851      3598.703      -72077.594      5220.2759     -66857.318      173392.3       13.404164     -66467.856      23.736451      15.380051      15.661772    
     84000   4002.4104     -3948.6581     -72118.901      5173.0041     -66945.897      173994.13      13.3578       -67374.716      25.195491      15.545488      16.07682     
     85000   3995.9637     -2042.7936     -72143.352      5164.672      -66978.68       173700.6       13.380373     -67200.15       24.565668      15.268598      16.231639    
     86000   3949.311      -924.21446     -72081.028      5104.3746     -66976.653      173738.84      13.377427     -67076.874      23.494793      15.065285      16.279103    
     87000   4028.2882     -244.2538      -72133.879      5206.4505     -66927.428      173676.25      13.382249     -66953.905      27.005289      15.832583      16.013805    
     88000   3919.1545      1361.2443     -72191.336      5065.3982     -67125.938      173306.82      13.410775     -66978.692      24.082686      15.363448      15.738325    
     89000   4001.9098      1589.3376     -72055.812      5172.3572     -66883.454      173533.94      13.393223     -66711.311      25.000937      15.386249      16.064121    
     90000   4042.6461      78.228867     -72064.429      5225.0077     -66839.421      173771.08      13.374946     -66830.937      23.193387      15.325633      15.85606     
     91000   4003.02        1937.5225     -72184.313      5173.792      -67010.521      173459.5       13.398971     -66800.755      24.0648        15.321756      15.950603    
     92000   4073.7593     -3413.1716     -72145.404      5265.2205     -66880.183      173871.2       13.367244     -67250.587      24.077309      15.503224      16.069285    
     93000   4012.6418     -2707.6687     -72136.878      5186.228      -66950.65       173815.99      13.37149      -67244.398      23.072412      15.41079       15.834127    
     94000   4032.5925      6614.0514     -72160.077      5212.0137     -66948.064      173024.51      13.432656     -66233.79       26.278561      15.27354       16.374299    
     95000   3990.8433      251.61611     -72156.55       5158.054      -66998.496      173568.65      13.390545     -66971.237      23.699181      15.420782      15.914428    
     96000   4035.9274      1135.1084     -72091.732      5216.3239     -66875.409      173751.56      13.376448     -66752.309      24.134285      15.529555      15.99403     
     97000   3983.2015     -10302.525     -72173.436      5148.1771     -67025.258      174398.5       13.326828     -68146.699      23.350909      15.6118        16.060967    
     98000   3948.0186      3122.8786     -72109.992      5102.7042     -67007.288      173441.97      13.400325     -66669.224      25.284408      15.520728      16.141818    
     99000   4050.3243      1920.2615     -72160.241      5234.9315     -66925.31       173459.92      13.398938     -66717.412      24.390381      15.365204      16.147938    
    100000   3970.5108     -5370.8706     -72123.376      5131.7747     -66991.601      173964.76      13.360055     -67574.772      24.631481      15.508796      16.279611    
    101000   4078.4972     -1311.3758     -72097.53       5271.3442     -66826.186      173818.73      13.371279     -66968.456      24.42115       15.429561      16.338933    
    102000   4024.4366      735.77138     -72167.046      5201.4724     -66965.573      173492.31      13.396436     -66885.9        22.4711        15.366177      15.785838    
    103000   4014.824      -2180.0043     -72180.277      5189.0484     -66991.229      173649.24      13.38433      -67227.505      25.751669      15.435465      16.471163    
    104000   4009.7539      2881.8033     -72061.011      5182.4954     -66878.515      173580.62      13.389621     -66566.299      23.42959       15.490278      15.820974    
    105000   4031.1305     -866.34718     -72161.564      5210.124      -66951.44       173687.01      13.38142      -67045.358      25.566364      15.599049      16.309259    
    106000   3955.7113      2898.4513     -72161.687      5112.6468     -67049.04       173416.39      13.402301     -66735.317      25.514441      15.302153      16.585579    
    107000   4031.2265      459.68879     -72096.587      5210.2482     -66886.339      173721.34      13.378775     -66836.495      23.505394      15.617188      15.759322    
    108000   4054.8129     -2507.1797     -72198.964      5240.733      -66958.231      173734.22      13.377783     -67230.1        24.304254      15.499541      16.131771    
    109000   3958.8819      1996.485      -72212.716      5116.7448     -67095.972      173300.5       13.411264     -66880.021      25.51904       15.395031      16.349233    
    110000   3952.0558      678.05132     -72297          5107.9222     -67189.078      173196.45      13.419321     -67115.78       23.322774      15.230394      15.949233    
    111000   4028.5461      560.66439     -72197.799      5206.7838     -66991.015      173488.66      13.396718     -66930.305      23.740223      15.39496       16.006998    
    112000   3981.3753     -3502.0191     -72167.902      5145.8169     -67022.085      173794.03      13.37318      -67401.962      24.788065      15.288524      16.705408    
    113000   4001.5545      1529.8046     -72157.891      5171.898      -66985.993      173372.13      13.405723     -66820.452      25.383528      15.735137      15.979191    
    114000   3969.722      -1125.6879     -72256.891      5130.7552     -67126.136      173360.39      13.40663      -67247.939      24.959723      15.499087      16.069868    
    115000   4036.7092      2528.4575     -72176.999      5217.3344     -66959.665      173233.25      13.41647      -66686.279      24.224232      15.306401      16.147808    
    116000   3999.7659      259.59502     -72203.52       5169.5862     -67033.934      173413.09      13.402556     -67005.837      24.73709       15.466826      16.161338    
    117000   3952.8554     -3575.1329     -72137.545      5108.9557     -67028.589      173878.66      13.366671     -67416.586      25.241003      15.839817      16.101642    
    118000   3944.0173     -956.21452     -72210.131      5097.5326     -67112.599      173478.34      13.397515     -67216.134      23.234937      15.190256      16.22422     
    119000   4011.3058      3082.6012     -72280.841      5184.5011     -67096.34       173108.2       13.426162     -66763.278      25.078676      15.592462      15.912424    
    120000   4035.8605      1060.927      -72158.15       5216.2375     -66941.912      173530.56      13.393484     -66827.004      24.035351      15.247216      16.358917    
    121000   3985.7654     -2078.5226     -72240.302      5151.491      -67088.811      173512.48      13.394879     -67313.911      24.81          15.558548      16.168352    
    122000   4041.2383      1034.7576     -72167.318      5223.1881     -66944.13       173451.52      13.399587     -66832.107      23.848408      15.748299      15.745846    
    123000   4046.922      -1733.4017     -72095.194      5230.5342     -66864.66       173713.34      13.379391     -67052.601      23.51089       15.273703      16.361415    
    124000   3941.1433     -1743.6434     -72107.494      5093.8181     -67013.676      173715.43      13.37923      -67202.73       25.450433      15.627117      16.418314    
    125000   4024.0032      2202.3005     -72116.333      5200.9122     -66915.421      173404.63      13.403211     -66677.064      23.964673      15.437974      16.12911     
    126000   3958.3599      71.101626     -72163.73       5116.0701     -67047.66       173465.04      13.398543     -67039.962      23.837184      15.439464      16.119883    
    127000   4047.405       3248.2939     -72176.038      5231.1585     -66944.88       173237.56      13.416136     -66593.653      26.424686      15.542448      16.54095     
    128000   3970.1963      2655.6499     -72191.846      5131.3683     -67060.478      173211.18      13.41818      -66773.376      24.053922      15.538855      15.917032    
    129000   3950.8109     -3636.1048     -72160.283      5106.3133     -67053.97       173731.21      13.378015     -67448.249      24.875506      15.681009      16.424849    
    130000   4030.6719      5546.9442     -72146.588      5209.5314     -66937.057      173217.63      13.41768      -66337.355      24.401293      15.442433      16.116302    
    131000   4025.12        1871.6627     -72135.963      5202.3556     -66933.607      173344.37      13.40787      -66731.106      24.614575      15.665505      16.014715    
    132000   3966.7204     -2523.9551     -72137.636      5126.8757     -67010.76       173800.44      13.372686     -67284.553      24.396055      15.500131      16.401749    
    133000   3946.3567      4003.4815     -72295.826      5100.5563     -67195.269      172959.82      13.43768      -66763.081      25.758035      15.721145      16.001815    
    134000   3948.7585      2998.3009     -72208.318      5103.6605     -67104.657      173264.09      13.414083     -66780.412      24.457604      15.450885      16.244835    
    135000   3999.9417     -3239.3049     -72163.303      5169.8135     -66993.49       173798.08      13.372868     -67344.878      24.688096      15.786535      16.137033    
    136000   3995.4876      531.46702     -72220.976      5164.0566     -67056.92       173470.65      13.398109     -66999.377      24.049325      15.342864      16.455109    
    137000   4033.0555      1529.2163     -72164.655      5212.612      -66952.043      173522.4       13.394114     -66786.423      24.797378      15.681439      16.237317    
    138000   3954.9991      1158.7896     -72184.766      5111.7263     -67073.04       173350.33      13.407409     -66947.662      22.83185       15.555267      15.850271    
    139000   3976.0832     -2843.3342     -72289.245      5138.977      -67150.268      173574.61      13.390085     -67458.306      25.089362      15.579137      16.499263    
    140000   4006.46        1550.9209     -72238.257      5178.2381     -67060.019      173356.67      13.406919     -66892.208      23.658183      15.534145      16.028179    
    141000   4017.9939     -1637.5699     -72228.206      5193.1454     -67035.06       173608.79      13.387449     -67212.504      26.302167      15.509485      16.888595    
    142000   3971.666       1463.6974     -72173.542      5133.2678     -67040.274      173408.93      13.402878     -66881.853      24.374973      15.494481      16.362586    
    143000   4008.9541      3400.0855     -72304.432      5181.4617     -67122.97       173090.19      13.427559     -66755.644      24.238822      15.731199      15.92078     
    144000   3972.3936      4826.8822     -72269.354      5134.2083     -67135.146      173034.25      13.4319       -66613.845      25.774311      15.703546      16.137041    
    145000   3998.2437     -3758.5713     -72204.942      5167.6187     -67037.323      173812.25      13.371777     -67445.072      23.975862      15.889116      15.999121    
    146000   3988.1011     -1750.0445     -72270.014      5154.5097     -67115.505      173522.61      13.394098     -67305.042      25.341164      15.594886      16.609273    
    147000   3962.708       4212.7847     -72189.751      5121.6899     -67068.061      173158.88      13.422232     -66612.755      24.251986      15.475281      16.230042    
    148000   3960.9236     -3592.0997     -72169.589      5119.3836     -67050.206      173747.03      13.376797     -67439.749      23.857315      15.915758      15.927305    
    149000   3967.6047     -2052.4045     -72230.012      5128.0188     -67101.993      173624.63      13.386228     -67324.408      23.770028      15.317197      16.53158     
    150000   3980.1121      4986.6929     -72214.097      5144.1842     -67069.913      173074.74      13.428758     -66531.227      24.880588      15.633138      16.142346    
    151000   3996.7365     -2091.7261     -72167.673      5165.6708     -67002.002      173689.96      13.381193     -67228.763      24.645715      15.669377      16.391272    
    152000   3999.0017      3364.9732     -72293.044      5168.5985     -67124.445      173086.62      13.427836     -66760.92       23.485267      15.249411      16.202579    
    153000   3995.4562     -549.02432     -72089.209      5164.0161     -66925.193      173620.12      13.386575     -66984.688      25.103059      15.791768      16.317543    
    154000   3976.2918     -709.75306     -72279.428      5139.2466     -67140.181      173437.2       13.400693     -67217.012      24.488139      15.574921      16.387651    
    155000   4017.7343      1293.0027     -72158.707      5192.8099     -66965.897      173440.31      13.400453     -66825.926      23.791181      15.558679      16.156236    
    156000   3970.3267      1378.9926     -72228.771      5131.5368     -67097.235      173367.22      13.406103     -66948.017      26.254828      15.662771      16.608482    
    157000   4017.0375     -4624.7925     -72179.231      5191.9093     -66987.322      173864.31      13.367774     -67489.193      23.40924       15.825622      15.992295    
    158000   3959.2714      1427.8379     -72246.826      5117.2482     -67129.577      173242.78      13.415732     -66975.186      24.031246      15.542481      16.171722    
    159000   4006.6011     -1851.5541     -72172.32       5178.4206     -66993.899      173653.17      13.384027     -67194.581      25.903427      15.532484      16.856386    
    160000   3994.758      -491.63458     -72112.23       5163.1136     -66949.117      173655.68      13.383833     -67002.404      23.834363      15.8623        16.030071    
    161000   3957.5806      3419.1834     -72241.042      5115.0629     -67125.979      173149.49      13.422961     -66756.463      24.735997      15.478165      16.36363     
    162000   4035.6276      3403.6028     -72271.535      5215.9365     -67055.599      173084.54      13.427997     -66687.904      25.955164      15.525544      16.53386     
    163000   4021.937      -2252.9584     -72145.341      5198.2417     -66947.099      173674.98      13.382346     -67191.318      23.972485      15.837488      15.958712    
    164000   3976.6782     -2773.8828     -72221.704      5139.746      -67081.958      173642.16      13.384876     -67382.589      25.38364       15.810384      16.391663    
    165000   4005.3847     -1388.361      -72248.895      5176.8484     -67072.047      173563.22      13.390964     -67222.448      23.563747      15.477033      16.282814    
    166000   4034.957      -1519.9708     -72212.586      5215.0697     -66997.516      173535.13      13.393131     -67162.148      25.436926      15.658854      16.572134    
    167000   4003.8902     -3965.9834     -72255.889      5174.9167     -67080.972      173648.12      13.384417     -67510.816      23.682531      15.665646      16.127154    
    168000   4018.8696      2566.2782     -72311.714      5194.2772     -67117.437      173173.85      13.421072     -66840.056      26.159411      15.650986      16.603469    
    169000   4010.1082      3783.9995     -72186.287      5182.9534     -67003.334      173164.58      13.421791     -66594.356      25.1769        15.708573      16.217775    
    170000   4037.3837     -4718.6605     -72279.924      5218.2061     -67061.718      173773.01      13.374797     -67573.506      24.070673      15.757826      16.294604    
    171000   3975.9651     -1997.0254     -72243.996      5138.8243     -67105.171      173534.05      13.393214     -67321.472      25.572951      15.842811      16.437369    
    172000   3995.1053      802.99816     -72276.676      5163.5625     -67113.114      173343.06      13.407971     -67026.236      23.691488      15.355218      16.444562    
    173000   4038.3149      6231.4807     -72188.752      5219.4097     -66969.343      173095.58      13.427141     -66296.107      25.650714      15.750876      16.212596    
    174000   3966.5052     -1799.957      -72189.737      5126.5977     -67063.14       173538.44      13.392875     -67258.101      25.561381      15.704167      16.591435    
    175000   4021.4016     -2127.9289     -72181.807      5197.5497     -66984.257      173705.23      13.380016     -67214.964      24.150152      15.777407      16.174362    
    176000   4096.456       2068.1898     -72191.646      5294.5554     -66897.091      173418.72      13.402121     -66673.231      24.308295      15.752731      16.171518    
    177000   3986.6437      1541.8375     -72295.234      5152.6261     -67142.608      173212.33      13.418091     -66975.919      26.67451       15.656113      16.689591    
    178000   3991.1552      327.7133      -72193.155      5158.4572     -67034.697      173522.85      13.394079     -66999.205      24.430942      15.711417      16.300605    
    179000   3995.2651     -1746.9275     -72315.032      5163.7691     -67151.263      173406.54      13.403063     -67340.337      24.682652      15.650631      16.331292    
    180000   3994.839       1944.0693     -72342.011      5163.2184     -67178.792      173110.52      13.425982     -66968.741      26.635994      15.637554      16.672364    
    181000   4014.6394     -11.141358     -72303.514      5188.8098     -67114.704      173176.04      13.420903     -67115.909      25.574242      15.798015      16.212099    
    182000   3963.9765     -1228.1205     -72283.458      5123.3294     -67160.128      173448.87      13.399791     -67293.083      24.017694      15.547982      16.333161    
    183000   4021.9573     -795.89605     -72171.487      5198.2679     -66973.219      173516.17      13.394594     -67059.415      25.349825      15.598176      16.650032    
    184000   3924.6373      3374.4325     -72264.625      5072.4845     -67192.14       172929.74      13.440018     -66827.923      25.184957      16.078571      15.804597    
    185000   4018.993       241.47362     -72355.802      5194.4367     -67161.365      173157.69      13.422325     -67135.267      24.365351      15.284876      16.670366    
    186000   3997.6175      1056.1102     -72262.836      5166.8095     -67096.026      173366.11      13.406189     -66981.748      25.137366      15.856956      16.250843    
    187000   3955.3056     -3729.4337     -72201.035      5112.1225     -67088.913      173758.02      13.375951     -67493.375      24.37265       15.862718      16.227751    
    188000   3986.8092     -1411.8564     -72234.678      5152.84       -67081.838      173467.62      13.398343     -67234.7        23.262177      15.74386       15.957891    
    189000   4067.9661      2849.6941     -72300.37       5257.733      -67042.637      173064.47      13.429554     -66734.817      25.544498      15.633729      16.371991    
    190000   3980.2136     -709.6133      -72175.384      5144.3154     -67031.069      173532.79      13.393312     -67107.927      24.219379      15.770215      16.217006    
    191000   3992.2538     -850.53502     -72291.987      5159.8769     -67132.11       173389.55      13.404376     -67224.156      22.970694      15.495331      16.186784    
    192000   4059.44        718.58476     -72265.524      5246.7133     -67018.811      173312.8       13.410312     -66941.079      26.230277      15.708166      16.62088     
    193000   4035.0192      3149.2871     -72249.188      5215.1501     -67034.038      173173.22      13.421121     -66693.643      24.958303      15.770667      16.133916    
    194000   3986.6263     -2669.6934     -72311.942      5152.6037     -67159.338      173442.3       13.4003       -67448.344      24.596979      15.566081      16.536449    
    195000   4006.0831      144.51738     -72272.565      5177.7511     -67094.814      173404.07      13.403254     -67079.173      25.942005      15.709372      16.619766    
    196000   3900.3967      367.89975     -72231.88       5041.1543     -67190.726      173200.36      13.419018     -67150.955      23.97235       15.551387      16.239732    
    197000   4032.6205     -704.71156     -72233.661      5212.0499     -67021.611      173460.74      13.398875     -67097.907      26.916308      15.879132      16.652652    
    198000   4023.2323     -964.48275     -72175.102      5199.9159     -66975.186      173531.74      13.393393     -67079.65       23.914654      15.637504      16.257602    
    199000   4015.6724     -3809.6121     -72263.772      5190.1448     -67073.627      173716.93      13.379115     -67486.686      25.866898      15.868292      16.535738    
    200000   4057.1328      230.60934     -72257.404      5243.7313     -67013.672      173387.06      13.404568     -66988.716      24.800729      15.629923      16.497963    
    201000   3974.1868     -1813.5295     -72376.674      5136.5259     -67240.148      173251.4       13.415065     -67436.254      23.946708      15.529712      16.260583    
    202000   4027.3013     -4820.8539     -72168.497      5205.1749     -66963.322      173868.92      13.367419     -67486.484      25.378376      16.115979      16.301101    
    203000   3961.8179      708.57928     -72288.401      5120.5394     -67167.862      173191.9       13.419673     -67091.266      24.986949      15.469659      16.610196    
    204000   3979.4078      5473.2934     -72160.64       5143.2739     -67017.366      173020.87      13.432938     -66426.299      24.761819      15.796081      16.105961    
    205000   3989.2873     -2110.7663     -72262.293      5156.0429     -67106.25       173507.55      13.39526      -67334.835      26.217164      15.98428       16.481141    
    206000   3995.7348      726.9532      -72277.429      5164.3761     -67113.053      173260.3       13.414376     -67034.439      24.129052      15.545889      16.308796    
    207000   4022.7671     -2471.5215     -72224.672      5199.3145     -67025.357      173642.25      13.384869     -67293.218      24.893429      15.585203      16.722665    
    208000   3992.7085     -1013.2488     -72224.544      5160.4648     -67064.08       173475.49      13.397735     -67173.789      23.953375      15.7339        16.138164    
    209000   4020.6471      2751.9463     -72170.467      5196.5745     -66973.892      173263.07      13.414161     -66676.291      25.806761      15.835156      16.47731     
    210000   3936.7702      2276.9912     -72243.766      5088.166      -67155.6        173142.85      13.423475     -66909.531      24.384201      15.493384      16.52706     
    211000   3940.9188      1852.4928     -72214.069      5093.528      -67120.541      173336.62      13.408469     -66920.123      24.429995      15.516154      16.420974    
    212000   4000.1591      2463.4816     -72312.893      5170.0944     -67142.798      173065.11      13.429505     -66876.696      26.242574      15.901278      16.310878    
    213000   3937.3624     -1198.9214     -72344.13       5088.9314     -67255.199      173287.72      13.412253     -67384.871      25.261716      15.684659      16.430439    
    214000   4020.0927     -2590.8457     -72223.928      5195.858      -67028.07       173541.29      13.392656     -67308.699      23.51697       15.700452      16.221678    
    215000   4013.2954      2916.3774     -72264.559      5187.0727     -67077.486      173078.68      13.428452     -66762.438      26.845734      16.042737      16.240176    
    216000   3928.9431     -134.43788     -72138.636      5078.0496     -67060.587      173460.87      13.398865     -67075.142      24.776732      15.630206      16.648269    
    217000   4001.6419      701.65741     -72192.143      5172.0108     -67020.132      173554.83      13.391611     -66944.125      24.745728      15.831269      16.228406    
    218000   4034.4309      8463.0571     -72288.159      5214.3898     -67073.769      172577.96      13.467414     -66162.173      25.865631      15.836092      16.077673    
    219000   4038.6754     -562.27841     -72241.475      5219.8756     -67021.6        173348.6       13.407543     -67082.436      24.616295      15.67289       16.367946    
    220000   4016.187      -5620.3809     -72189.941      5190.81       -66999.131      173890.01      13.365798     -67609.131      25.428392      15.929903      16.566564    
    221000   3963.3476      1404.5469     -72270.946      5122.5166     -67148.43       173084.65      13.427989     -66996.695      24.377067      15.772433      16.129781    
    222000   4023.5133      3071.8749     -72176.975      5200.2791     -66976.696      173254.84      13.414798     -66644.512      25.332711      15.664453      16.648824    
    223000   3974.1703     -1442.6268     -72132.482      5136.5046     -66995.977      173769.47      13.37507      -67152.442      24.959356      15.812966      16.570541    
    224000   3999.2357      2172.7746     -72233.05       5168.901      -67064.149      173209.85      13.418283     -66829.253      24.803849      15.77653       16.289868    
    225000   4003.5431      2788.2132     -72226.591      5174.4681     -67052.123      173104.49      13.42645      -66750.875      26.548473      15.737538      16.6794      
    226000   3960.9426     -4988.6343     -72223.952      5119.4081     -67104.544      173670.1       13.382722     -67645.294      23.275171      15.760135      16.189733    
    227000   3998.071      -795.84558     -72064.74       5167.3956     -66897.344      173671.9       13.382584     -66983.612      25.031165      15.682013      16.694419    
    228000   4014.1126      2766.7317     -72140.596      5188.1289     -66952.467      173303.38      13.411041     -66653.196      25.382894      15.913212      16.261814    
    229000   3998.0684      470.43432     -72255.725      5167.3922     -67088.332      173370.04      13.405885     -67037.427      23.782714      15.781807      16.184779    
    230000   3963.6456     -2884.8171     -72182.008      5122.9017     -67059.107      173725.78      13.378433     -67371.911      25.415032      15.7011        16.840487    
    231000   3954.494       1880.0258     -72289.17       5111.0735     -67178.096      173146.05      13.423227     -66974.923      24.329194      15.695415      16.243582    
    232000   4017.4874      3151.5028     -72259.198      5192.4908     -67066.707      173087.93      13.427734     -66726.241      25.737079      15.651798      16.598813    
    233000   4028.9695     -2822.866      -72335.646      5207.331      -67128.315      173452.13      13.39954      -67433.92       25.710385      15.679705      16.757616    
    234000   3949.5966      2394.1358     -72225.656      5104.7437     -67120.913      173212.33      13.418091     -66862.081      24.186925      15.761111      16.164305    
    235000   4059.1643      2516.8815     -72212.035      5246.357      -66965.678      173201.69      13.418915     -66693.593      25.141309      15.717422      16.481057    
    236000   4008.1856     -137.88461     -72201.345      5180.4684     -67020.876      173551.14      13.391895     -67035.812      25.300877      15.885868      16.463609    
    237000   3989.6234     -1601.2877     -72257.855      5156.4773     -67101.377      173559.42      13.391257     -67274.84       24.512109      15.985219      16.217501    
    238000   4032.8123      3250.4636     -72148.43       5212.2977     -66936.133      173419.7       13.402045     -66584.302      25.132137      15.608488      16.836366    
    239000   3965.0895      3090.8535     -72176.415      5124.7679     -67051.647      173221.27      13.417398     -66717.475      25.48622       15.760446      16.422381    
    240000   3977.2526     -4191.8425     -72221.682      5140.4884     -67081.194      173641.16      13.384953     -67535.499      22.527593      15.657612      16.121817    
    241000   4037.4963      977.03488     -72215.357      5218.3517     -66997.006      173357.85      13.406827     -66891.289      25.854833      15.770799      16.677963    
    242000   3944.7679     -4405.092      -72299.076      5098.5028     -67200.573      173631.57      13.385692     -67677.963      24.082722      15.569998      16.652143    
    243000   4027.7349      2209.1207     -72238.023      5205.7354     -67032.288      173325.37      13.409339     -66793.303      24.759837      15.594377      16.608892    
    244000   4014.3904      1603.63       -72275.838      5188.4879     -67087.35       173117.81      13.425417     -66914.075      25.776791      16.119246      16.123243    
    245000   4009.9047     -2310.2245     -72122.964      5182.6903     -66940.274      173757.56      13.375986     -67190.82       23.333669      15.61359       16.478353    
    246000   4049.7905     -3452.1603     -72283.107      5234.2416     -67048.866      173580.61      13.389622     -67422.875      24.937222      15.863423      16.464476    
    247000   3976.5392      4502.1374     -72212.359      5139.5663     -67072.793      173141.32      13.423594     -66586.263      24.628419      15.768482      16.267296    
    248000   4035.9066      4865.0925     -72215.807      5216.297      -66999.51       173117.63      13.425431     -66473.829      24.718111      15.579451      16.514855    
    249000   3992.7913     -69.860326     -72186.464      5160.5718     -67025.893      173544.84      13.392382     -67033.46       25.524531      15.877937      16.531435    
    250000   4046.0979      284.26297     -72276.271      5229.469      -67046.802      173296.27      13.411592     -67016.056      23.638182      15.835971      15.969859    
    251000   4025.7921     -1559.2773     -72124.633      5203.2244     -66921.409      173730.82      13.378045     -67090.488      24.007023      15.642409      16.606007    
    252000   4027.4811     -1962.1109     -72185.838      5205.4073     -66980.431      173644.34      13.384708     -67193.085      26.274155      16.037374      16.557534    
    253000   4013.8212      1385.7076     -72312.446      5187.7522     -67124.694      173165.95      13.421684     -66974.924      24.251905      15.78609       16.159467    
    254000   3996.836       1008.1266     -72169.565      5165.7994     -67003.765      173383.12      13.404873     -66894.669      24.106779      15.470835      16.702317    
    255000   3966.3273     -589.55446     -72277.904      5126.3677     -67151.536      173272.55      13.413427     -67215.296      25.404556      15.954423      16.251092    
    256000   3979.9989      425.87128     -72311.928      5144.0379     -67167.89       173313.24      13.410278     -67121.822      24.911627      15.802488      16.410407    
    257000   4027.4581      5234.1861     -72268.055      5205.3776     -67062.677      172963.01      13.437432     -66497.621      25.191523      15.580364      16.512349    
    258000   3968.4908     -6367.5092     -72262.701      5129.164      -67133.537      173860.25      13.368086     -67824.507      24.344653      15.806479      16.480227    
    259000   4028.2374     -1437.7487     -72258.079      5206.3848     -67051.694      173439.72      13.400498     -67207.334      24.737348      15.759661      16.48099     
    260000   3992.8662      4871.6974     -72230.544      5160.6686     -67069.875      173090.52      13.427533     -66543.563      25.348185      15.76548       16.430286    
    261000   4010.4041      234.9718      -72237.555      5183.3358     -67054.219      173405.36      13.403154     -67028.788      24.585231      15.977875      16.116421    
    262000   3947.9199     -2070.9173     -72242.778      5102.5767     -67140.201      173412.95      13.402567     -67364.348      27.293695      16.03185       16.767776    
    263000   3983.3956      1878.9155     -72094.872      5148.4281     -66946.444      173460.01      13.398931     -66743.022      22.973595      15.660153      16.250748    
    264000   3998.286       2084.6493     -72303.642      5167.6734     -67135.969      173188.1       13.419968     -66910.628      25.000814      15.469249      16.668977    
    265000   3989.2655      856.76995     -72278.781      5156.0148     -67122.766      173361.36      13.406556     -67030.061      24.816073      16.024201      16.078583    
    266000   3991.317      -3511.2965     -72409.637      5158.6662     -67250.971      173306.11      13.41083      -67630.785      24.763427      15.668969      16.52749     
    267000   4022.4095      4418.7122     -72300.34       5198.8525     -67101.487      172999.8       13.434575     -66624.364      25.584284      15.624781      16.610484    
    268000   4027.1135     -361.5311      -72204.141      5204.9321     -66999.208      173498.68      13.395945     -67038.358      24.719259      15.943223      16.271626    
    269000   3954.7763     -2431.8792     -72224.371      5111.4384     -67112.933      173507.07      13.395297     -67376.292      24.781367      15.880469      16.338264    
    270000   4003.8564     -1968.2081     -72269.41       5174.8731     -67094.537      173405.49      13.403144     -67307.558      24.170389      15.536922      16.54431     
    271000   4004.5599      1024.5224     -72233.681      5175.7823     -67057.899      173342.2       13.408038     -66947.054      25.74974       15.786568      16.667123    
    272000   3987.9077     -3584.7477     -72297.57       5154.2598     -67143.31       173568.12      13.390585     -67531.656      24.129997      15.719051      16.36096     
    273000   4021.3785      7232.4612     -72292.427      5197.5199     -67094.907      172775.86      13.451988     -66314.971      25.166559      15.713223      16.338476    
    274000   4022.3162     -2574.3748     -72286.188      5198.7318     -67087.456      173455.77      13.399259     -67366.165      26.172064      15.833572      16.741167    
    275000   3957.3994     -1741.3278     -72277.344      5114.8287     -67162.516      173448.04      13.399856     -67351.028      25.632793      16.155824      16.164207    
    276000   3986.7503      2524.9459     -72244.182      5152.7638     -67091.418      173144.91      13.423315     -66818.551      24.343338      15.52882       16.546021    
    277000   3998.1698     -3380.4962     -72234.68       5167.5232     -67067.157      173606.92      13.387593     -67433.457      25.332657      15.948028      16.484801    
    278000   4025.2923     -3649.5722     -72317.089      5202.5784     -67114.51       173567.83      13.390608     -67509.878      22.57449       15.656764      16.129536    
    279000   4009.5407      3409.6119     -72242.132      5182.2198     -67059.912      173112.25      13.425848     -66691.509      25.874313      15.754841      16.515886    
    280000   3989.1752     -614.77569     -72162.27       5155.8979     -67006.372      173584.61      13.389313     -67072.978      24.562398      15.758852      16.524668    
    281000   3980.217      -3692.1412     -72259.783      5144.3198     -67115.463      173637         13.385274     -67515.602      23.454056      15.74608       16.249449    
    282000   4044.5049     -1928.2526     -72313.863      5227.4101     -67086.453      173326.04      13.409288     -67295.054      25.76529       15.95327       16.483043    
    283000   3994.2415      4742.4242     -72251.48       5162.4461     -67089.034      172943.25      13.438968     -66577.124      25.392884      15.805893      16.318491    
    284000   4006.564      -1970.3295     -72253.999      5178.3725     -67075.626      173526.1       13.393828     -67289.025      24.69817       15.606318      16.741325    
    285000   4020.018      -235.26661     -72285.463      5195.7615     -67089.702      173476.39      13.397666     -67115.175      25.901956      16.14336       16.345523    
    286000   4006.7077      981.46286     -72241.006      5178.5583     -67062.448      173205.8       13.418597     -66956.345      23.933873      15.470801      16.56818     
    287000   4013.0578      2118.3183     -72263.131      5186.7657     -67076.366      173320.61      13.409708     -66847.21       25.307359      15.827589      16.41071     
    288000   3983.2306     -7098.6116     -72267.299      5148.2148     -67119.085      173767.29      13.375237     -67888.979      25.61242       15.871453      16.767646    
    289000   4005.9889      610.76526     -72255.037      5177.6293     -67077.407      173269.77      13.413642     -67011.355      25.079417      15.663506      16.579581    
    290000   4041.6765     -3868.711      -72202.163      5223.7545     -66978.408      173695.97      13.380729     -67397.825      26.029942      16.197808      16.48556     
    291000   3962.9264      1173.44       -72212.673      5121.9721     -67090.7        173278.95      13.412932     -66963.79       25.343477      15.543859      16.81265     
    292000   4023.4148     -456.70103     -72219.054      5200.1517     -67018.902      173435.86      13.400797     -67068.34       24.719888      15.752013      16.472519    
    293000   4012.8526     -395.38459     -72286.856      5186.5004     -67100.355      173384.03      13.404803     -67143.143      24.300827      15.925677      16.110953    
    294000   3983.8238      4969.8638     -72327.107      5148.9814     -67178.126      172808.41      13.449454     -66642.084      25.921823      15.675378      16.482617    
    295000   3950.0825      2652.5381     -72279.383      5105.3717     -67174.011      173132.16      13.424304     -66887.376      23.330429      15.597374      16.218413    
    296000   3958.7456     -755.59499     -72165.767      5116.5686     -67049.198      173545.96      13.392295     -67131.043      25.474826      16.009367      16.38485     
    297000   3936.352       611.77766     -72349.678      5087.6255     -67262.053      173213.13      13.418028     -67195.913      25.502809      15.911224      16.399522    
    298000   4002.1517      2340.6653     -72264.24       5172.6697     -67091.57       173175.6       13.420937     -66838.573      25.260564      15.946276      16.214928    
    299000   4017.604      -3821.1286     -72124.81       5192.6414     -66932.169      173873.78      13.367045     -67346.851      24.140002      15.738372      16.649656    
    300000   4012.0228     -2341.4991     -72227.089      5185.4279     -67041.661      173620.94      13.386512     -67295.399      25.53508       15.765681      16.890665    
    301000   3940.3129      2021.2252     -72338.686      5092.7448     -67245.942      172977.84      13.43628      -67027.721      25.746496      15.908573      16.323031    
    302000   3992.0104      2355.2275     -72238.751      5159.5624     -67079.188      173160.34      13.422119     -66824.639      24.807061      15.711701      16.41249     
    303000   3919.7761     -126.17236     -72306.731      5066.2017     -67240.529      173170.45      13.421336     -67254.166      26.821968      15.795391      16.790315    
    304000   3981.8073     -498.79471     -72247.083      5146.3752     -67100.708      173368.9       13.405973     -67154.681      23.791981      15.789885      16.29868     
    305000   4032.2374      304.66414     -72335.878      5211.5547     -67124.323      173259.46      13.414441     -67091.377      24.769571      15.78459       16.402529    
    306000   3950.6183     -3088.3613     -72155.311      5106.0643     -67049.247      173788.47      13.373607     -67384.242      24.538683      15.71975       16.806067    
    307000   4010.4243     -4751.6299     -72203.223      5183.3618     -67019.861      173712.87      13.379427     -67535.047      23.289296      15.638023      16.438882    
    308000   3979.4663      3125.7949     -72297.159      5143.3495     -67153.81       172938.54      13.439334     -66816.412      25.376229      15.860454      16.233665    
    309000   3979.3011     -868.17792     -72265.638      5143.136      -67122.502      173466.84      13.398404     -67216.5        23.624602      15.521079      16.555153    
    310000   3988.4216     -1342.3184     -72246.054      5154.924      -67091.13       173575.41      13.390023     -67236.553      25.651846      15.889848      16.741555    
    311000   4047.4771     -1632.5773     -72249.966      5231.2515     -67018.714      173489.54      13.396651     -67195.496      24.310904      15.871856      16.459271    
    312000   3959.2495      307.81337     -72164.021      5117.2199     -67046.801      173384.91      13.404735     -67013.49       24.638184      15.550429      16.739802    
    313000   3979.2767     -3319.5588     -72264.407      5143.1045     -67121.303      173525.47      13.393877     -67480.831      26.99076       16.383477      16.427121    
    314000   4026.3658     -3952.6871     -72255.252      5203.9658     -67051.286      173682.6       13.381759     -67479.774      23.951267      15.692989      16.592092    
    315000   4061.4023      2114.2308     -72239.605      5249.2496     -66990.355      173254.96      13.414789     -66761.728      26.104009      15.788173      16.822523    
    316000   3964.7615     -1456.142      -72355.173      5124.344      -67230.829      173348         13.407589     -67388.376      24.330921      15.706561      16.444988    
    317000   3968.7808     -2041.8295     -72265.432      5129.5388     -67135.893      173548.87      13.39207      -67357.066      24.688264      15.682198      16.749602    
    318000   4015.3984     -287.77358     -72236.936      5189.7908     -67047.145      173450.62      13.399657     -67078.299      25.277657      16.264833      16.206261    
    319000   3980.5639      1964.0936     -72251.84       5144.7681     -67107.072      173251.79      13.415034     -66894.684      25.042479      15.58746       16.70121     
    320000   3992.72        697.72786     -72275.982      5160.4795     -67115.502      173226.97      13.416957     -67040.064      25.425         15.982403      16.329942    
    321000   4046.7278     -1392.178      -72297.601      5230.2832     -67067.317      173435.07      13.400858     -67218.02       24.150535      15.799435      16.250253    
    322000   3972.2347     -294.76912     -72363.07       5134.0029     -67229.067      173178.1       13.420743     -67260.928      26.045514      15.683386      16.899912    
    323000   4040.0539     -4397.4439     -72251.084      5221.6573     -67029.427      173745.78      13.376893     -67506.301      25.740496      16.260565      16.343217    
    324000   3983.1834      6821.0747     -72369.041      5148.1538     -67220.887      172693.84      13.458377     -66485.664      26.188778      15.605667      16.675797    
    325000   4027.1097     -252.02557     -72294.607      5204.9273     -67089.68       173328.93      13.409064     -67116.945      25.074818      15.866425      16.522007    
    326000   3949.7355     -177.92282     -72259.325      5104.9233     -67154.402      173330.56      13.408938     -67173.65       25.744416      15.91472       16.452806    
    327000   3961.6214      1501.5275     -72295.053      5120.2855     -67174.767      173138.87      13.423784     -67012.505      24.653851      15.598019      16.585372    
    328000   4033.2001      4024.7777     -72290.468      5212.7989     -67077.669      173033.14      13.431986     -66642.998      25.849498      15.640107      16.720341    
    329000   4003.6869     -4010.4606     -72368.665      5174.6539     -67194.011      173414.31      13.402462     -67628.09       23.818891      15.771459      16.343108    
    330000   3973.5163     -45.993288     -72207.095      5135.6594     -67071.436      173401.17      13.403478     -67076.414      25.770045      15.723387      16.892416    
    331000   4047.2981      1131.1759     -72314.809      5231.0202     -67083.789      173197.03      13.419276     -66961.508      27.248531      16.009264      16.674364    
    332000   3995.5796      809.70287     -72322.625      5164.1755     -67158.449      173238.11      13.416094     -67070.899      24.103509      15.723446      16.334986    
    333000   3938.4502      572.19438     -72236.343      5090.3373     -67146.006      173280.49      13.412813     -67084.121      25.766602      15.851203      16.621525    
    334000   4057.0778      56.119012     -72201.108      5243.6602     -66957.448      173407.06      13.403023     -66951.374      23.833426      15.712683      16.433878    
    335000   3941.2036      3654.3848     -72216.525      5093.8961     -67122.629      173147.02      13.423152     -66727.7        25.541595      15.975708      16.247954    
    336000   3990.9043     -4227.05       -72276.465      5158.1328     -67118.332      173628.93      13.385895     -67576.42       25.826399      15.964531      16.639268    
    337000   4062.5824      2032.8957     -72310.276      5250.7747     -67059.501      173209.91      13.418278     -66839.727      23.652357      15.587374      16.426042    
    338000   3925.5723      2211.9489     -72283.905      5073.693      -67210.212      173071.72      13.428992     -66971.271      25.993458      15.959867      16.379812    
    339000   3984.4213     -5080.1708     -72208.415      5149.7537     -67058.661      173797.8       13.37289      -67609.738      24.349855      15.855543      16.55261     
    340000   4027.0541      2275.8823     -72217.212      5204.8555     -67012.357      173306.46      13.410803     -66766.176      26.269333      15.722025      17.063487    
    341000   3957.5796      1049.6818     -72274.027      5115.0616     -67158.966      173215.75      13.417826     -67045.482      24.126621      15.762322      16.338275    
    342000   4023.7329     -6445.3909     -72242.699      5200.5628     -67042.136      173796.56      13.372985     -67741.302      24.056599      15.857664      16.536668    
    343000   4052.1051      2573.0655     -72261.024      5237.2331     -67023.791      173241.39      13.41584      -66745.569      24.142393      15.702113      16.394764    
    344000   3994.9655      2282.7096     -72260.31       5163.3817     -67096.928      173219.95      13.4175       -66850.132      27.578371      15.84807       16.938762    
    345000   4016.3006     -4039.2399     -72144.643      5190.9568     -66953.686      173768.97      13.375108     -67391.774      23.263399      15.87267       16.305636    
    346000   3985.4781     -572.56045     -72274.406      5151.1197     -67123.286      173257.09      13.414624     -67185.202      25.516115      15.845856      16.539095    
    347000   3974.7864      2850.5404     -72273.635      5137.3009     -67136.334      173004.67      13.434196     -66828.53       26.067349      15.672102      16.787342    
    348000   4046.2537     -601.77202     -72223.895      5229.6704     -66994.225      173556.01      13.39152      -67059.412      24.884644      15.856641      16.550918    
    349000   3998.2949     -2276.835      -72267.576      5167.685      -67099.891      173399.19      13.403631     -67346.307      23.50662       15.759374      16.304035    
    350000   4030.3621      1209.9482     -72247.523      5209.131      -67038.392      173345.34      13.407795     -66907.483      26.112226      15.767919      16.785074    
    351000   4033.5743      221.46606     -72231.969      5213.2826     -67018.687      173356.1       13.406962     -66994.724      23.55121       15.870984      16.123199    
    352000   3996.1924     -932.44742     -72242.411      5164.9676     -67077.443      173412.28      13.402619     -67178.367      24.737027      15.925512      16.369985    
    353000   3972.3458     -3142.2303     -72200.937      5134.1465     -67066.79       173740.42      13.377306     -67407.534      24.534353      15.681799      16.752973    
    354000   3975.2947      395.86367     -72236.478      5137.9578     -67098.52       173156.54      13.422414     -67055.737      24.056531      15.961004      16.113322    
    355000   4102.7929      4154.2501     -72262.318      5302.7457     -66959.572      173062.62      13.429698     -66510.842      25.351607      15.526231      16.811972    
    356000   3980.8672     -1262.1409     -72219.973      5145.1602     -67074.813      173577.14      13.389889     -67211.551      24.28034       15.836937      16.443326    
    357000   3971.2164     -1068.2841     -72203.94       5132.6868     -67071.253      173506.1       13.395372     -67186.942      24.304974      15.846689      16.432892    
    358000   4023.7728      2443.8931     -72325.105      5200.6144     -67124.491      173074.58      13.42877      -66860.49       27.093856      15.666639      17.00389     
    359000   3964.3175      35.286429     -72307.019      5123.7701     -67183.249      173319.73      13.409776     -67179.431      23.683974      15.918659      16.12046     
    360000   3910.3218     -56.689952     -72198.238      5053.9822     -67144.256      173328.16      13.409124     -67150.389      26.98761       15.851665      16.912323    
    361000   4009.801      -212.52521     -72166.956      5182.5563     -66984.4        173519.87      13.394309     -67007.417      24.683387      16.021146      16.314217    
    362000   4018.3564      2021.3601     -72263.179      5193.6139     -67069.565      173145.1       13.423301     -66851.12       24.988906      15.98938       16.225736    
    363000   3952.4462      1892.0004     -72210.816      5108.4267     -67102.39       173325.62      13.40932      -66897.711      25.571922      15.65987       16.950686    
    364000   3980.6353     -1599.0038     -72256.732      5144.8604     -67111.871      173437.58      13.400664     -67284.965      24.669707      16.148662      16.153084    
    365000   4012.881      -2872.2721     -72215.791      5186.537      -67029.254      173610.35      13.387328     -67340.49       25.562644      15.732519      17.049955    
    366000   3986.9423     -2311.7863     -72126.355      5153.012      -66973.343      173671.5       13.382615     -67223.935      23.2104        15.624527      16.487149    
    367000   3982.7553      146.61385     -72207.139      5147.6004     -67059.538      173475.82      13.39771      -67043.664      24.866842      15.868431      16.439212    
    368000   3960.9589      3414.7598     -72277.28       5119.4293     -67157.851      173010.22      13.433766     -66789.11       24.634842      15.759825      16.451825    
    369000   3949.7591      2417.5854     -72331.602      5104.9539     -67226.648      173067.77      13.429299     -66965.5        26.259773      15.633081      16.898737    
    370000   4010.6912     -1215.4935     -72203.702      5183.7068     -67019.995      173551.2       13.391891     -67151.66       24.663791      16.035078      16.279556    
    371000   3985.1613      224.61133     -72285.86       5150.7102     -67135.15       173292.89      13.411853     -67110.856      25.261772      15.947255      16.437085    
    372000   4033.651       5458.4705     -72264.652      5213.3818     -67051.27       172910.16      13.44154      -66462.181      23.386534      15.4851        16.352333    
    373000   4019.0967     -3003.2957     -72312.04       5194.5707     -67117.469      173533.91      13.393225     -67442.76       25.309259      15.814165      16.801075    
    374000   3960.5583     -4851.6139     -72272.551      5118.9115     -67153.64       173692.48      13.380998     -67679.605      24.306339      15.978727      16.381443    
    375000   4007.597       2459.2955     -72289.387      5179.7077     -67109.679      173079.89      13.428358     -66844.006      26.581817      15.961893      16.627627    
    376000   3955.6474      2667.1512     -72200.746      5112.5643     -67088.182      173159.37      13.422195     -66799.923      24.75607       15.770463      16.579307    
    377000   4035.7476     -4153.2605     -72330.058      5216.0915     -67113.966      173589.82      13.388912     -67563.957      24.200536      15.790141      16.551861    
    378000   4055.2206      1400.3873     -72250.192      5241.2598     -67008.932      173379.96      13.405117     -66857.389      24.619345      15.90068       16.349088    
    379000   4016.598      -2029.8047     -72203.659      5191.3413     -67012.317      173641.32      13.384941     -67232.304      24.937723      15.955146      16.653379    
    380000   3955.8548     -4914.3882     -72189.086      5112.8323     -67076.254      173858.78      13.368199     -67609.535      24.737105      15.936778      16.706161    
    381000   4056.0953      4288.2444     -72206.624      5242.3904     -66964.234      173209.39      13.418319     -66500.637      25.048581      15.708702      16.706391    
    382000   4010.7235     -513.37502     -72199.357      5183.7486     -67015.608      173396.05      13.403874     -67071.168      24.722471      15.800117      16.54704     
    383000   3968.0843     -912.59817     -72286.969      5128.6387     -67158.331      173407.46      13.402991     -67257.104      27.666879      16.247178      16.827796    
    384000   3994.8008      1070.121      -72262.263      5163.169      -67099.094      173273.71      13.413338     -66983.362      24.370752      15.698         16.522472    
    385000   4031.6253      1005.8354     -72316.127      5210.7636     -67105.364      173127.14      13.424693     -66996.676      25.324787      15.896171      16.490641    
    386000   4013.7937     -5293.7904     -72309.143      5187.7168     -67121.426      173620.64      13.386535     -67695.09       25.419936      16.180766      16.41851     
    387000   3990.5905      128.97222     -72254.239      5157.7272     -67096.512      173285.69      13.41241      -67082.563      25.374859      15.7457        16.758976    
    388000   3982.1031      3962.6723     -72217.644      5146.7575     -67070.887      173048.7       13.430779     -66642.884      24.517192      15.704312      16.415345    
    389000   3930.6109      390.32101     -72242.336      5080.2053     -67162.131      173258.73      13.414497     -67119.922      23.976485      15.874883      16.298302    
    390000   4014.9888     -314.04826     -72330.424      5189.2613     -67141.163      173248.61      13.415281     -67175.122      25.25489       15.758123      16.792355    
    391000   3962.2534     -980.61442     -72178.469      5121.1023     -67057.367      173554.17      13.391662     -67163.591      23.488571      15.714245      16.439749    
    392000   4034.4399     -7295.5986     -72139.481      5214.4014     -66925.08       174141.39      13.346504     -67718.042      26.202744      16.591754      16.567956    
    393000   3988.3846     -921.33549     -72266.73       5154.8762     -67111.854      173365.07      13.406269     -67211.548      24.938581      15.80016       16.648582    
    394000   3992.8476      4946.2497     -72281.975      5160.6444     -67121.331      172942.02      13.439064     -66587.423      24.277387      15.690988      16.396094    
    395000   3993.7141     -827.01536     -72262.289      5161.7644     -67100.524      173442.25      13.400303     -67190.052      25.237133      15.988975      16.443305    
    396000   4067.4026      404.04863     -72309.479      5257.0048     -67052.474      173269.22      13.413685     -67008.778      24.198573      15.362055      17.089448    
    397000   4014.5737      807.02576     -72327.224      5188.7248     -67138.499      173187.5       13.420015     -67051.264      25.602788      16.075537      16.342625    
    398000   4031.9144     -4625.4175     -72350.629      5211.1372     -67139.492      173528.89      13.393612     -67640.462      24.705892      15.659199      16.957968    
    399000   4016.3599      749.041       -72340.739      5191.0335     -67149.705      173152.76      13.422707     -67068.754      25.318585      15.940614      16.477941    
    400000   3987.1038      4480.1549     -72234.827      5153.2208     -67081.607      173054.38      13.430338     -66597.696      25.971006      15.819428      16.701788    
    401000   4017.883      -1749.5571     -72329.643      5193.002      -67136.641      173372.2       13.405717     -67325.962      24.492426      15.787194      16.628054    
    402000   4041.2006      4676.266      -72232.277      5223.1394     -67009.138      173019.02      13.433082     -66504.148      24.028595      15.66104       16.416344    
    403000   4000.0089     -294.34166     -72205.11       5169.9003     -67035.21       173393.39      13.404079     -67067.065      26.017318      16.083314      16.702626    
    404000   3965.9126      4057.9498     -72287.686      5125.8317     -67161.855      173010.84      13.433717     -66723.657      24.450836      15.640965      16.506388    
    405000   4027.4534      2409.3548     -72309.825      5205.3716     -67104.453      173032.34      13.432048     -66844.247      25.738356      15.732025      16.803664    
    406000   4017.9403     -7000.6164     -72184.104      5193.0761     -66991.028      174152.16      13.345679     -67751.975      25.129421      16.083344      16.715605    
    407000   3967.4212     -943.10481     -72343.684      5127.7815     -67215.902      173244.63      13.415589     -67317.881      24.960043      15.883146      16.4669      
    408000   3923.8699      717.79463     -72305.36       5071.4927     -67233.867      173205.27      13.418637     -67156.269      26.723936      16.062886      16.702597    
    409000   4005.8236      270.21018     -72245.938      5177.4156     -67068.522      173394.04      13.404029     -67039.279      24.024091      15.929931      16.260194    
    410000   4015.2493     -1400.0275     -72164.404      5189.598      -66974.806      173635.5       13.385389     -67126.534      24.235162      15.605239      16.936753    
    411000   3963.0955     -723.89245     -72226.355      5122.1908     -67104.164      173499.37      13.395892     -67182.554      24.900807      15.98748       16.459499    
    412000   3994.1781      1580.0777     -72217.276      5162.3641     -67054.912      173258.33      13.414528     -66884.043      24.887983      15.943072      16.519272    
    413000   4059.1904      3978.6364     -72246.815      5246.3907     -67000.424      173126.85      13.424716     -66570.503      24.307846      15.66058       16.644803    
    414000   3979.3806     -4450.9109     -72325.762      5143.2388     -67182.523      173495.02      13.396227     -67664.499      26.352163      15.990558      16.79779     
    415000   3982.7575      3797.4562     -72292.548      5147.6033     -67144.944      172935.58      13.439563     -66735.055      24.322181      15.803398      16.282612    
    416000   4010.3003     -4339.7182     -72191.154      5183.2017     -67007.952      173792.04      13.373333     -67478.692      25.881722      16.026816      16.939747    
    417000   3949.2438     -747.70474     -72283.471      5104.2877     -67179.184      173345.14      13.40781      -67260.081      25.184855      15.773541      16.681832    
    418000   4026.3222      5235.9526     -72276.195      5203.9095     -67072.285      172974.2       13.436563     -66507.001      24.322845      15.739969      16.45755     
    419000   3934.451      -3384.0565     -72309.006      5085.1685     -67223.837      173536.1       13.393056     -67590.374      25.421879      16.034914      16.617246    
    420000   4051.584      -743.33914     -72258.634      5236.5596     -67022.074      173436.13      13.400776     -67102.541      25.717975      15.823937      16.969864    
    421000   3987.2139      4335.7281     -72363.1        5153.3631     -67209.737      172825.53      13.448121     -66742.046      24.508081      15.626484      16.494981    
    422000   3981.9659      1811.4778     -72237.608      5146.5802     -67091.028      173259.64      13.414427     -66895.135      26.163138      16.001907      16.668904    
[...]
    899000   3968.4323     -3177.8624     -72191.577      5129.0884     -67062.489      173687.82      13.381357     -67406.992      25.010171      16.06518       16.890056    
    900000   4023.3905      5628.5669     -72281.409      5200.1204     -67081.288      172792.39      13.450701     -66474.256      26.47233       16.043913      16.877672    
    901000   4001.8466      911.82964     -72316.039      5172.2754     -67143.764      173185.98      13.420132     -67045.2        25.212177      16.120163      16.723847    
    902000   3950.8745     -6550.9837     -72178.072      5106.3954     -67071.676      173931.3       13.362625     -67782.847      25.597517      16.399792      16.84266     
    903000   3893.6548     -1509.2889     -72236.553      5032.4405     -67204.113      173471.67      13.398031     -67367.527      24.236872      15.980097      16.745393    
    904000   4042.3227      4620.2763     -72240.038      5224.5897     -67015.448      173062.69      13.429693     -66516.378      26.34875       16.287513      16.709216    
    905000   4025.0796     -1435.0008     -72254.67       5202.3034     -67052.367      173390.69      13.404288     -67207.666      24.135466      15.93324       16.796249    
    906000   4025.0195      1060.7532     -72185.188      5202.2258     -66982.962      173451.34      13.399601     -66868.125      25.276162      16.148558      16.87332     
    907000   4007.8898      2081.5906     -72274.206      5180.0861     -67094.12       173181.51      13.420479     -66869.118      27.277379      16.202733      17.102751    
    908000   4023.2649     -3309.1413     -72232.525      5199.958      -67032.567      173724.05      13.378566     -67391.377      23.452843      16.079097      16.605272    
    909000   3973.3765      1.2630092     -72313.053      5135.4786     -67177.574      173244.35      13.415611     -67177.438      25.943781      16.111419      16.869865    
    910000   4045.1037     -1030.3289     -72319.79       5228.184      -67091.606      173389.76      13.40436      -67203.11       25.574352      16.148861      16.819627    
    911000   4010.0445     -2740.3784     -72241.207      5182.871      -67058.336      173679.67      13.381985     -67355.399      23.433273      16.042041      16.635672    
    912000   3941.4848      2073.4356     -72286.68       5094.2595     -67192.42       173075.82      13.428674     -66968.437      27.067901      15.951873      17.294158    
    913000   4009.0045     -1307.7895     -72185.546      5181.5268     -67004.019      173452.71      13.399495     -67145.601      24.495358      16.106284      16.72205     
    914000   4027.6186     -616.87158     -72104.101      5205.5851     -66898.516      173590.84      13.388833     -66965.352      27.705828      16.245693      17.414146    
    915000   3964.9795     -2371.5468     -72229.587      5124.6258     -67104.962      173625.9       13.386129     -67361.963      24.342852      16.074226      16.781661    
    916000   3960.2941      2140.7322     -72249.132      5118.57       -67130.562      173241.73      13.415813     -66899.087      25.628146      16.100158      16.853618    
    917000   4007.9551      2573.2555     -72256.018      5180.1706     -67075.847      173118.36      13.425374     -66797.802      26.403695      15.82681       17.307433    
    918000   3990.5039     -366.24965     -72256.053      5157.6154     -67098.438      173424.09      13.401707     -67138.082      24.575519      16.122892      16.74818     
    919000   3952.8297     -2137.9753     -72269.654      5108.9224     -67160.732      173549.18      13.392047     -67392.319      24.349452      15.695445      17.35135     
    920000   4038.6827      3656.4148     -72319.645      5219.885      -67099.76       173028.58      13.43234      -66704.882      25.876745      16.165048      16.705775    
    921000   4007.0074     -1243.9018     -72284.756      5178.9456     -67105.811      173381.28      13.405016     -67240.421      26.297494      16.28113       16.898667    
    922000   4005.2964      1893.4458     -72230.983      5176.7342     -67054.249      173280.06      13.412846     -66849.468      24.422814      15.843086      16.960046    
    923000   3983.1466      1605.2788     -72189.624      5148.1062     -67041.518      173266.63      13.413885     -66867.916      27.856143      16.327041      17.063788    
    924000   4003.7229      1274.3795     -72191.936      5174.7006     -67017.235      173427.57      13.401438     -66879.29       23.718358      16.068344      16.5886      
    925000   3960.5853     -12.249391     -72296.525      5118.9463     -67177.579      173277.15      13.413071     -67178.903      25.643471      16.023369      16.963905    
    926000   3987.7514      4578.4795     -72268.26       5154.0578     -67114.202      173031.97      13.432077     -66619.735      26.784579      16.046513      17.237166    
    927000   4064.5915     -4278.8908     -72317.439      5253.3715     -67064.068      173637.05      13.38527      -67527.796      24.12914       16.273492      16.481598    
    928000   3968.6077     -2485.6359     -72255.5        5129.315      -67126.185      173511.18      13.39498      -67395.372      25.917842      16.135163      17.130447    
    929000   4011.0178      1382.4782     -72183.311      5184.1289     -66999.182      173368.66      13.405992     -66849.587      23.569921      15.93443       16.636328    
    930000   4013.9995      525.20291     -72320.773      5187.9827     -67132.791      173164.64      13.421786     -67076.026      27.235492      16.480491      16.776641    
    931000   3963.0561     -2009.831      -72299.95       5122.1398     -67177.811      173384.45      13.40477      -67395.311      24.2316        16.081556      16.672222    
    932000   4063.3316     -505.18886     -72319.425      5251.7431     -67067.682      173173.14      13.421127     -67122.286      25.676493      16.022077      16.978445    
    933000   4032.9208     -2235.9171     -72222.251      5212.4379     -67009.813      173564.86      13.390837     -67252.031      25.89088       16.476406      16.690495    
    934000   4032.0623     -4959.268      -72228.824      5211.3284     -67017.496      173754.5       13.376222     -67555.324      25.30983       15.892345      17.432055    
    935000   4005.2374      749.51792     -72301.32       5176.6579     -67124.662      173235.78      13.416274     -67043.621      25.028461      15.917353      16.92435     
    936000   4041.302       2003.6876     -72313.584      5223.2705     -67090.314      173116.94      13.425484     -66873.813      25.910529      16.234855      16.730283    
    937000   4038.5879     -5247.629      -72134.333      5219.7625     -66914.57       173952.88      13.360967     -67484.32       26.023192      16.310098      17.171743    
    938000   4002.8801     -2508.7192     -72258.69       5173.6112     -67085.078      173614.97      13.386972     -67356.928      25.109136      15.859845      17.320819    
    939000   4015.8877      3688.6059     -72308.03       5190.4232     -67117.607      172985.11      13.435716     -66719.353      25.219207      16.197701      16.608125    
    940000   4049.5586      227.40231     -72153.512      5233.9418     -66919.57       173489.78      13.396632     -66894.946      24.310785      16.050446      16.860923    
    941000   3982.5707     -3988.1894     -72180.587      5147.3618     -67033.225      173809.85      13.371962     -67465.878      25.037445      16.465921      16.670468    
    942000   3917.8529     -266.33829     -72252.745      5063.7159     -67189.03       173347.21      13.40765      -67217.846      24.903609      15.98644       16.944687    
    943000   3993.6685      1078.9902     -72242.947      5161.7055     -67081.242      173261.87      13.414254     -66964.558      24.914595      16.066848      16.786257    
    944000   4052.528       1751.8915     -72168.353      5237.7798     -66930.573      173422.91      13.401798     -66740.944      25.828144      16.306584      16.842617    
    945000   4088.0284     -3039.4289     -72347.168      5283.663      -67063.505      173506.15      13.395368     -67392.657      22.822079      15.953754      16.617673    
    946000   3938.1014      643.01078     -72187.203      5089.8865     -67097.316      173406.14      13.403094     -67027.722      25.371252      16.025615      17.026227    
    947000   3967.0213      4402.0165     -72269.918      5127.2647     -67142.653      173001.93      13.434409     -66667.326      25.150308      16.119057      16.615581    
    948000   4031.6675      840.7509      -72131.105      5210.8181     -66920.287      173469.34      13.39821      -66829.258      24.79879       16.014654      17.055997    
    949000   3974.7854     -4217.4925     -72170.869      5137.2996     -67033.569      173828.99      13.37049      -67491.148      26.936652      16.346462      17.189493    
    950000   4026.7406     -276.93037     -72193.991      5204.4502     -66989.541      173446.36      13.399986     -67019.521      24.575593      15.974443      16.976476    
    951000   3985.1788      738.29469     -72216.138      5150.7328     -67065.405      173282.69      13.412642     -66985.555      25.098607      16.239568      16.695818    
    952000   3968.1442     -121.95787     -72261.145      5128.716      -67132.429      173311.76      13.410393     -67145.621      26.797252      16.045184      17.347225    
    953000   3988.1231     -1615.6051     -72180.587      5154.5382     -67026.049      173532.85      13.393307     -67201.037      23.940092      16.245757      16.564061    
    954000   4001.3827     -606.92325     -72171.781      5171.6759     -67000.105      173454.9       13.399326     -67065.812      25.778635      16.103076      17.142814    
    955000   4077.5947      2238.9419     -72221.814      5270.1778     -66951.636      173256.38      13.414679     -66709.521      25.571248      15.903959      17.152037    
    956000   4009.4415     -4452.583      -72188.389      5182.0917     -67006.298      173734.99      13.377724     -67489.122      24.630629      16.675485      16.366088    
    957000   3988.85       -596.95111     -72293.724      5155.4776     -67138.246      173246.5       13.415445     -67202.796      24.361413      15.912182      16.93239     
    958000   3995.9377     -1163.9008     -72363.449      5164.6384     -67198.81       173265.76      13.413953     -67324.679      25.22236       16.140294      16.711985    
    959000   3992.8693      672.28004     -72271.215      5160.6726     -67110.542      173257.08      13.414625     -67037.843      26.302141      16.191231      16.938641    
    960000   3973.8265      1496.8205     -72215.537      5136.0603     -67079.477      173297.88      13.411466     -66917.574      24.33253       16.076472      16.754029    
    961000   4000.234      -3040.6706     -72280.742      5170.1912     -67110.551      173676.88      13.3822       -67440.161      24.693902      16.093532      17.029484    
    962000   4031.839      -3051.7178     -72185.975      5211.0397     -66974.936      173690.81      13.381127     -67305.77       26.011953      16.312438      17.082984    
    963000   3919.3845      949.43121     -72248.408      5065.6954     -67182.712      173245.11      13.415552     -67080.049      24.326155      15.989632      16.748645    
    964000   4008.4145     -4291.6064     -72262.008      5180.7643     -67081.244      173732.8       13.377893     -67546.607      24.450215      16.159595      16.902544    
    965000   3994.7117      2631.0954     -72236.727      5163.0538     -67073.673      173224.78      13.417126     -66789.204      27.30199       16.339182      16.999681    
    966000   3976.8013      2544.6961     -72210.241      5139.9051     -67070.336      173278.78      13.412945     -66795.122      25.246839      16.107198      16.914717    
    967000   4017.6276     -1376.6985     -72260.367      5192.672      -67067.695      173432.45      13.401061     -67216.72       24.064618      16.047029      16.815945    
    968000   4022.1159      5804.5307     -72201.314      5198.473      -67002.841      173053.6       13.430398     -66375.885      26.948644      16.326424      16.933099    
    969000   3994.2382     -1756.044      -72321.426      5162.4418     -67158.984      173350.65      13.407384     -67348.983      24.966637      15.918478      17.121451    
    970000   3985.5299      2621.9364     -72289.78       5151.1865     -67138.594      173051.59      13.430554     -66855.398      25.503567      16.028913      16.893717    
    971000   4045.2805     -408.66815     -72219.62       5228.4126     -66991.208      173465.54      13.398504     -67035.454      25.890186      16.481172      16.702295    
    972000   3981.7993     -737.08902     -72230.489      5146.3649     -67084.124      173442.92      13.400252     -67163.917      24.517239      15.80228       17.180194    
    973000   4037.3115      2384.4739     -72222.747      5218.1128     -67004.635      173239.58      13.41598      -66746.807      25.51824       16.231728      16.762867    
    974000   4004.3809      5447.3779     -72328.387      5175.5509     -67152.836      172882.24      13.44371      -66565.039      25.176804      16.038402      16.65081     
    975000   3980.4858     -5425.9289     -72310.256      5144.6672     -67165.589      173615.34      13.386943     -67753.555      25.14404       15.951356      17.203148    
    976000   4028.052       595.71785     -72173.492      5206.1452     -66967.346      173427.86      13.401415     -66902.863      25.554229      16.433398      16.710845    
    977000   4056.6973     -1714.5203     -72297.156      5243.1684     -67053.987      173404.77      13.403199     -67239.551      25.275272      15.98889       17.179337    
    978000   4016.9972     -4396.7531     -72174.363      5191.8571     -66982.506      173840.37      13.369614     -67459.565      24.849468      16.266038      16.956034    
    979000   3983.9309      2025.9427     -72262.312      5149.12       -67113.192      173182.73      13.420384     -66894.203      25.748958      16.284384      16.839616    
    980000   4016.059       5156.8184     -72191.783      5190.6446     -67001.139      173071.05      13.429044     -66444.086      24.950093      15.966897      16.980017    
    981000   4019.3998     -1237.3538     -72223.189      5194.9625     -67028.227      173399.67      13.403594     -67162.143      25.165881      16.215086      16.849289    
    982000   4006.3417     -1330.7391     -72254.534      5178.0852     -67076.448      173443.53      13.400205     -67220.508      24.626045      15.808897      17.286077    
    983000   3980.679      -134.23465     -72268.483      5144.9169     -67123.566      173379.68      13.405139     -67138.092      23.858494      16.072593      16.669724    
    984000   3997.1196     -671.68947     -72339.571      5166.1659     -67173.405      173248.27      13.415307     -67246.037      26.932697      16.306029      17.029076    
    985000   4003.0893      3088.2776     -72283.199      5173.8816     -67109.317      173032.97      13.432        -66775.787      24.988876      15.986145      16.847958    
    986000   3988.302      -2448.1491     -72155.795      5154.7694     -67001.025      173593.98      13.388591     -67266.28       24.247508      16.348835      16.584258    
    987000   4063.094      -103.70879     -72221.3        5251.436      -66969.864      173411.45      13.402683     -66981.089      26.597917      15.988704      17.438016    
    988000   3955.0336     -1483.0386     -72202.801      5111.7709     -67091.03       173474.46      13.397815     -67251.605      23.990097      15.951906      16.849507    
    989000   3971.8288      1796.1413     -72268.315      5133.4783     -67134.837      173220.31      13.417473     -66940.646      26.117945      16.197349      16.984631    
    990000   3952.4482     -1507.7773     -72249.916      5108.4293     -67141.487      173538.83      13.392846     -67304.801      26.137938      16.307166      17.052479    
    991000   4043.439       212.40745     -72167.559      5226.0324     -66941.527      173460.81      13.398869     -66918.53       25.502328      16.087882      17.161035    
    992000   3974.3074     -53.307764     -72298.437      5136.6818     -67161.755      173424.01      13.401713     -67167.526      25.595652      15.953194      17.239564    
    993000   3986.6572      637.19294     -72282.305      5152.6435     -67129.662      173282.41      13.412664     -67060.746      24.761246      16.224843      16.689982    
    994000   4029.4705      312.30905     -72226.131      5207.9786     -67018.153      173364.05      13.406348     -66984.359      25.374139      16.047208      17.081653    
    995000   3980.4708     -4719.9724     -72297.551      5144.6479     -67152.903      173622.53      13.386389     -67664.391      24.951882      15.779979      17.588497    
    996000   3983.1507     -917.13969     -72176.939      5148.1115     -67028.828      173493.79      13.396323     -67128.141      24.772174      16.214627      16.790128    
    997000   3990.6401      737.45595     -72269.719      5157.7914     -67111.928      173260.72      13.414343     -67032.179      25.757681      16.082089      17.05567     
    998000   3986.3189      3337.7889     -72354.941      5152.2063     -67202.735      172884.89      13.443504     -66842.567      24.693777      16.092208      16.570919    
    999000   3981.8305     -1298.355      -72225.047      5146.4052     -67078.642      173557.37      13.391415     -67219.288      25.542471      16.155742      17.10546     
   1000000   3992.1507      560.28644     -72221.526      5159.7438     -67061.782      173331.04      13.408901     -67001.168      24.435339      16.218611      16.688062    
   1001000   4043.475       1917.8938     -72238.655      5226.0789     -67012.577      173291.34      13.411973     -66805.137      25.210569      16.259033      16.720914    
   1002000   3994.5135     -2576.231      -72233.671      5162.7976     -67070.873      173529.75      13.393546     -67349.902      24.629223      16.0039        17.112672    
   1002307   3969.0598      3388.7175     -72211.483      5129.8994     -67081.583      173120.4       13.425216     -66715.422      26.055728      16.227961      16.875697    
Loop time of 967.491 on 40 procs for 1000000 steps with 10000 atoms

Performance: 89.303 ns/day, 0.269 hours/ns, 1033.601 timesteps/s, 10.336 Matom-step/s
95.4% CPU use with 40 MPI tasks x 1 OpenMP threads

MPI task timing breakdown:
Section |  min time  |  avg time  |  max time  |%varavg| %total
---------------------------------------------------------------
Pair    | 671.51     | 681.3      | 693.36     |  21.9 | 70.42
Neigh   | 11.832     | 12.034     | 12.197     |   2.8 |  1.24
Comm    | 161.42     | 173.77     | 183.25     |  44.1 | 17.96
Output  | 0.16291    | 0.49941    | 1.3723     |  33.6 |  0.05
Modify  | 80.918     | 84.269     | 86.638     |  14.8 |  8.71
Other   |            | 15.62      |            |       |  1.61

Nlocal:            250 ave         265 max         237 min
Histogram: 1 1 10 5 6 5 6 3 2 1
Nghost:        1475.58 ave        1490 max        1462 min
Histogram: 2 2 6 5 5 5 7 7 0 1
Neighs:        11669.5 ave       12603 max       11128 min
Histogram: 6 4 7 3 10 5 1 2 1 1

Total # of neighbors = 466778
Ave neighs/atom = 46.6778
Neighbor list builds = 25049
Dangerous builds = 0
	unfix           feq

write_data	liq_or_sol.data nocoeff
System init for write_data ...






Total wall time: 0:16:11
