LAMMPS data file via write_data, version 2 Aug 2023, timestep = 1002307, units = metal

10000 atoms
2 atom types

1.772041457979661 66.87795854201424 xlo xhi
-0.4906450424564728 32.14064504600773 ylo yhi
-1.1814889088745701 80.30648890886928 zlo zhi

Atom Type Labels

1 W
2 Mo

Masses

1 183.85
2 95.94

Atoms # atomic

2 2 3.335183003742537 0.8860380115233899 0.3945069928544014 0 0 0
223 1 4.946510311783588 2.1996583566009114 1.949511319792657 0 0 0
4 1 6.300149722762773 0.6948007810773149 0.6927521920131707 0 0 0
225 1 8.028932065970558 2.5400186672465535 2.2743222563768124 0 0 0
6 2 9.471777197898327 1.0595430074172358 0.6229125846377084 0 0 0
227 2 11.363414815903546 2.049741470118278 2.0063762841546304 0 0 0
8 2 13.953426761557127 0.7002204044910043 0.3298925887555071 0 0 0
83 1 5.1464010685243515 11.805839428951444 -1.0927863012847647 0 0 0
10 1 16.75794394106299 0.49573235570317264 0.39509741590086445 0 0 0
229 2 14.49361983864247 2.9173512814035405 2.137937268517259 0 0 0
22 1 2.6124813089134795 4.263002850670616 0.7240499553265214 0 0 0
243 1 5.008961246270676 5.223583064793653 2.1019599291208517 0 0 0
42 2 3.2880004587543246 7.6008689035971955 0.4520120202591924 0 0 0
4846 1 8.425920333047962 5.901055118737042 -0.9522398385032811 0 0 1
910 2 14.814308425346672 15.064983664366197 12.189091555951917 0 0 0
24 1 6.838396395742939 4.21929172227381 0.15826544712372015 0 0 0
245 1 8.222139993256874 5.387467917580896 2.282618471742591 0 0 0
63 1 6.657844645538484 6.921709959209106 0.3448334101646162 0 0 0
26 2 9.838126512005852 4.000811778665861 0.353619763917167 0 0 0
1103 2 5.363433500009824 15.73577779515036 14.770190459509369 0 0 0
46 1 10.085147073991468 7.348126862110794 0.7290116121617931 0 0 0
28 2 13.258379098424356 4.1818433844989675 0.44619035536847873 0 0 0
247 1 11.685629740269261 5.562287474701686 1.9024951689213903 0 0 0
47 2 13.437498663297285 6.992657383137916 0.3978701169041834 0 0 0
7669 1 1.8333052383148072 12.592953129234822 5.185329357943666 0 -1 1
30 1 16.659461135927934 3.779853237145458 0.7365823947621504 0 0 0
48 1 15.160124046157511 5.771350641736132 2.099446579580657 0 0 0
271 2 16.812362761828396 7.533776365611679 0.43651580656748945 0 0 0
303 2 5.128594393101988 15.317722902100117 1.886761639044372 0 0 0
65 2 8.270708069382074 8.914397629294623 -0.812282717214672 0 0 0
62 1 3.1221681142111537 10.41258484938642 0.18836182754694186 0 0 0
263 1 4.69060506433752 9.163531248450846 1.9154747635898994 0 0 0
85 2 8.331493097469405 11.898073487342106 -1.0937502690848226 0 0 0
29 1 14.900989035677975 2.4734231329461287 -1.0782029915326317 0 0 0
64 2 6.464975308663138 10.442359041561495 0.609336935714728 0 0 0
265 2 8.503594833750256 8.773194787508293 2.204584922649582 0 0 0
66 2 10.533756238577855 10.463825548615535 0.2254372112598313 0 0 0
267 1 11.583812609701157 8.843093435842045 2.1505720336268306 0 0 0
269 1 13.449806009844483 10.863461712391311 0.45299317399550443 0 0 0
249 2 14.608813114422354 8.738592857024479 2.0872204031453303 0 0 0
91 2 16.377768621090418 10.520621437488877 0.159292769257521 0 0 0
107 1 11.610036005026382 15.506822787775457 -1.1395498424232624 0 0 0
309 2 14.887639554883485 15.417811328071794 2.3031034992810766 0 0 0
283 1 4.868369043594643 12.12980800181585 1.9082678659936776 0 0 0
9753 2 3.4493081167135156 13.732374879978046 0.3648378001417585 3 -1 1
25 2 7.631526775025025 2.1120900995523937 -0.9788798199534615 0 0 0
281 1 1.8769539906724468 12.035423253110464 1.8092593080288744 0 0 0
305 1 8.374463307727154 15.512680306480588 1.8802319857607097 0 0 0
285 1 8.678920450740334 11.592996717352783 2.0744621533920675 0 0 0
84 2 6.840886311964916 13.866116335738964 0.4080486119574931 0 0 0
86 1 9.74587210582574 13.684903910474288 0.6000211203028576 0 0 0
307 2 11.369261147542677 15.437564149040483 2.095878103986824 0 0 0
287 2 11.605753347239132 12.367662842782453 2.2265109687655027 0 0 0
88 1 13.38387076356107 14.08145619317842 0.5774568078718012 0 0 0
684 2 5.156559740296885 15.517583948465782 11.536312837554894 0 0 0
43 1 4.817425793234328 5.569126201913054 -0.8987668775587 0 0 0
289 2 15.123395846969267 12.407876247207268 1.9691668336611334 0 0 0
90 1 16.738716166293663 14.014035679766168 0.27800382556893366 0 0 0
69 2 15.1877513872615 8.813563695076242 -1.0073635229598428 0 0 0
9758 2 3.506472385024263 0.4645132831068888 3.7603488108674075 1 1 1
423 1 4.646312362614131 2.4578566856912647 5.389605046379363 0 0 0
204 1 6.451683154650752 0.7549424896461339 3.54853426513911 0 0 0
425 2 8.041891886002063 2.2637881522739476 5.391149132826779 0 0 0
427 2 9.828487219494429 0.6084013154255088 3.629846580706724 0 0 0
404 1 6.549792122853404 0.6584493335248045 7.166380552372962 0 0 0
408 1 11.612438329190933 1.9755467869483843 5.215547963828512 0 0 0
207 1 13.186140248184477 0.5211483926695912 3.571176988434762 0 0 0
607 2 13.64543923319597 0.5272101955854553 7.077634029757039 0 0 0
210 2 14.712371844396896 1.9973489786913992 5.295534599625582 0 0 0
209 2 16.215555179882646 0.87270359847921 3.466487574086889 0 0 0
429 1 16.613576168663254 0.6042335858896501 7.2318603449443515 0 0 0
222 1 3.1993283009953233 3.931865142577725 3.5698890422835516 0 0 0
443 1 5.141126984024023 5.788191552435228 5.457148136839274 0 0 0
7373 2 3.6238406662660987 7.337363175187031 3.9857613512021617 -3 0 0
442 2 3.0469398652480733 7.1160056496744994 7.048415256648626 0 0 0
422 2 2.5933841148825967 4.3715050677721905 7.088477540211933 0 0 0
224 1 6.435809811022215 4.1561284940226475 3.93629507589858 0 0 0
445 2 8.420170230646189 5.386227170011032 5.730027491810848 0 0 0
244 1 6.723580240216453 7.186325246670677 3.7434361240731624 0 0 0
226 1 10.262595794973107 4.103511829367053 4.088149348060676 0 0 0
424 1 6.917381979010658 3.6456243946267515 7.022490955156675 0 0 0
426 1 10.091464928445182 3.554644843218144 6.579744760081041 0 0 0
444 1 6.682896085662409 7.564884026986226 7.010790271359863 0 0 0
246 2 9.880181060180497 7.111808891564521 3.7948513524909844 0 0 0
228 2 13.164112555842088 3.8585126430144623 3.840403098929335 0 0 0
447 1 11.625125471321898 5.505955014430589 5.4499630772764505 0 0 0
248 1 13.403030813124941 7.3436373114388 3.9864283869871455 0 0 0
446 1 10.269444722232697 7.294096636574061 7.058158102278547 0 0 0
428 1 13.27721078155355 3.7386894964625172 6.804259333121363 0 0 0
448 1 13.350713456551484 7.114988070788694 6.995767473244431 0 0 0
230 2 16.32374099971342 3.9964284026600536 3.844604553094923 0 0 0
449 1 14.748440567018623 5.829515105767779 5.278220879947022 0 0 0
250 1 16.2653076811865 7.639428207979821 4.000248696651448 0 0 0
430 1 16.37818171709226 4.148381109752084 6.640686918164737 0 0 0
450 1 15.843195734220012 7.549776161849795 7.551813390307785 0 0 0
262 1 3.0760329694618447 10.697624633430925 3.5875846816414088 0 0 0
463 1 5.282369054006123 9.162246318915232 5.017088946589489 0 0 0
481 2 2.9255649034663875 10.562958455559192 6.642062045009743 0 0 0
49 1 15.218802611179658 5.318229736782689 -1.1581175977192584 0 0 0
264 2 6.47250761710146 10.64587159630095 3.817012875872811 0 0 0
465 1 8.31364393340595 9.310318584467648 5.190036082476606 0 0 0
266 2 10.372274379729204 10.437535760702142 3.858235178771758 0 0 0
464 1 6.504816525176973 10.642603088149338 7.080117340080111 0 0 0
466 2 10.220916514521981 10.875702788400577 6.594351331891758 0 0 0
467 1 11.550044485080537 8.899400134883907 5.298362286492205 0 0 0
268 2 13.306630304338494 10.776580800416713 3.912551326173232 0 0 0
468 2 12.837576981803295 10.856826284952666 6.9850506162205 0 0 0
469 2 14.826868120924699 9.12840412629869 5.6444759855859274 0 0 0
270 1 16.06382444094368 10.487488044628204 3.716545525667626 0 0 0
470 1 16.270876808070668 10.431189576664993 7.217963626266785 0 0 0
432 1 17.917292891769275 5.629110132105109 8.455219044020831 0 0 0
483 1 4.619423383785435 12.400855884596965 5.250551260470895 0 0 0
282 2 3.2215272628102345 14.037409020680334 3.5466167667959416 0 0 0
482 1 3.295930371357844 14.303805306883179 6.560248758130339 0 0 0
503 1 4.778036483742584 15.72908699762498 4.997145068439586 0 0 0
485 1 8.211847558738947 12.180912043049934 5.159307989671617 0 0 0
284 1 6.61285554064857 13.696110185332873 3.430720528526658 0 0 0
286 1 9.586151756967102 13.708665012267097 3.7041089283847635 0 0 0
505 2 8.014811011344896 15.570402436193698 5.138411387741964 0 0 0
507 1 11.689785452273163 15.206177269076454 5.127101895932369 0 0 0
487 1 11.49722125529168 12.560666093606974 4.9107420653691465 0 0 0
288 1 13.327819387158398 13.745664946062286 3.6784781229341954 0 0 0
489 1 15.046689857197254 12.542394767377363 5.238444719624942 0 0 0
290 2 16.67222035785011 14.05719834746687 3.7714691319033413 0 0 0
7 1 11.343568711870038 -0.41474175513356937 -0.8527349283836151 0 0 0
50 1 17.86683074633499 5.679092771258151 2.1665897276892636 0 0 0
601 1 3.2808372669400954 0.7944059235122898 7.106143092499437 0 0 0
602 1 3.1283583877814607 0.5522139742772891 10.362744819629821 0 0 0
623 1 4.777143155827413 2.2557201366076476 8.741440583268789 0 0 0
406 1 9.652436741632048 0.4710537290535669 6.454803901638459 0 0 0
604 2 7.045105044424149 0.972508600538394 9.795922077787381 0 0 0
625 1 8.571503633409929 2.7122439330767363 8.892706607217317 0 0 0
827 1 10.07664239975333 0.5839119372832446 10.04934916772278 0 0 0
627 1 11.78820564673929 2.1207986091485207 8.695993460135645 0 0 0
608 1 13.055427657087744 0.3132937137030869 10.17228593224491 0 0 0
610 2 17.640513104733152 2.6605880854691737 8.627820902957207 0 0 0
629 2 14.963101781167396 2.2545866076372723 8.563284408378683 0 0 0
609 1 16.422591104664424 0.799706722207254 10.177957766595341 0 0 0
622 1 2.9984902157622573 4.240274844556621 10.065589748244857 0 0 0
643 2 5.144651407833672 5.008950588359749 8.238858497192394 0 0 0
642 2 3.5573949975328194 6.987173440798875 10.227277673449768 0 0 0
624 1 6.767632366179525 3.9317256018651108 10.282573792780099 0 0 0
645 1 8.65329438455764 5.923276979266256 8.35589875771978 0 0 0
644 1 6.543905861291439 7.1179244382335085 9.85648353660397 0 0 0
626 2 10.595062079444697 3.880458656641194 10.190571104251621 0 0 0
646 2 9.82164653518112 7.301481537921297 10.109670664897633 0 0 0
628 2 13.121203219041986 3.7466119513208156 10.300158359315377 0 0 0
647 1 11.735298905219747 5.560865540389053 8.428851065846933 0 0 0
648 1 13.044361465707624 7.071292349263129 10.361880583592459 0 0 0
651 1 16.21421185300202 4.13436561123635 10.357847373544622 0 0 0
649 2 14.772778408647225 5.275005652731729 8.5747924441222 0 0 0
650 2 16.60251877619848 7.290810836046917 10.070557943328788 0 0 0
663 2 4.523592027904829 9.130508583613954 8.469153050874082 0 0 0
662 2 3.618436860720555 10.674863725665716 9.26675477277621 0 0 0
462 2 4.544499265167628 12.132774338286096 7.917910042295494 0 0 0
1089 1 15.057346826630035 12.282817908464525 14.889320562380064 0 0 0
664 1 6.557277758780353 10.972360218535126 9.798855028007761 0 0 0
665 1 8.302849599464192 8.996736373135883 8.638775206952559 0 0 0
687 2 10.205382762175093 10.961357323359222 9.740547638941257 0 0 0
668 2 13.198639094362239 10.78919235207336 9.96869378782907 0 0 0
667 2 11.37946900432209 8.978689808159208 8.631950724587918 0 0 0
669 1 14.027369345682486 8.92114146725183 8.773352928059953 0 0 0
670 1 16.916675823145788 10.414701020197738 9.911396418388254 0 0 0
1047 2 11.816335884689995 5.972460879609904 14.99590593101831 0 0 0
682 2 3.8237971047125723 13.79509322457113 10.142793457169706 0 0 0
491 2 17.70669684102114 11.760526171135444 5.082540374100232 0 0 0
705 2 8.463469734685482 15.706044225326528 8.162625080761607 0 0 0
486 2 9.855203585070193 13.848604872586032 6.5330828210548315 0 0 0
484 1 6.713200345264023 14.064422090784223 6.699382535525015 0 0 0
685 2 8.26396734536128 12.284894788279482 8.19984651925958 0 0 0
683 2 6.476308367531802 14.111340866350304 9.401914279810164 0 0 0
831 1 17.98523331865981 2.2469432652859984 11.79431482980488 0 0 0
488 1 13.511727389590714 13.949759990042812 6.860601368184653 0 0 0
686 2 9.782705721008972 14.252104491422616 9.854369308298882 0 0 0
688 2 11.623024037890733 12.852358437464165 7.9308099790885525 0 0 0
909 2 13.211640562472832 13.916277954938096 9.760916822860707 0 0 0
421 2 1.7976833534630714 2.3965777866966764 5.147263289456676 0 0 0
1024 2 11.685781173356823 1.9382747144208619 14.824637151419374 0 0 0
490 1 16.364702765716245 14.431013654430242 6.774523006584778 0 0 0
689 1 15.294164143242481 12.494123715146221 8.310132105478337 0 0 0
690 1 16.789656304028817 14.310767711656611 10.24801943112965 0 0 0
9659 1 1.808278958272733 5.767142966859157 14.910130283815036 1 0 1
823 2 5.660265025259374 2.1765071650250882 11.410598230894676 0 0 0
802 2 3.6051659601094133 1.42838633459266 13.277424907212215 0 0 0
509 1 14.712730553791753 15.641375994251709 5.407826235822663 0 0 0
825 1 8.34033183350958 2.0551858335529007 11.95592433651556 0 0 0
804 1 6.328802016522813 0.8553007301276814 13.77064349403147 0 0 0
451 2 17.88031424248991 5.9842560754910386 5.508677495872173 0 0 0
806 2 10.132210595368422 0.7722223822564842 13.581450897726672 0 0 0
1005 2 13.314370586916116 0.16515610255579571 13.28792790840411 0 0 0
828 1 11.857477477301867 1.7405725622019164 11.812063725608063 0 0 0
1085 2 7.839704437898264 12.246079987560863 14.819284227504578 0 0 0
101 1 1.851311989622586 15.381155774348244 -1.1004715449502631 0 0 0
829 1 14.638815022114397 2.0574288329375623 12.077681854327414 0 0 0
810 1 17.209816792961647 0.3984375935201624 13.263758729029902 0 0 0
822 1 3.248404515199449 3.9433096775421737 13.72319721251801 0 0 0
843 2 5.011723529048696 5.0252439371608935 11.337147620282645 0 0 0
8092 2 3.3744758385039058 6.949400488218997 12.837202890973254 0 1 1
824 2 6.8459681789737585 3.798244667341506 13.173685152330506 0 0 0
845 2 8.639040989632509 5.370553593776217 11.480428978049035 0 0 0
1063 1 6.436966639428416 6.9747295253363895 12.950939516694607 0 0 0
826 1 10.198483459276703 3.8362523695572506 13.378811305688448 0 0 0
844 1 9.635952433379547 7.339046925222953 13.251424844894142 0 0 0
847 2 13.292479548322866 3.777778852708515 13.161240787132856 0 0 0
846 2 11.666742067375278 5.398057278632383 12.012057017990697 0 0 0
867 1 13.40893915061892 7.339668392626663 13.262444910436983 0 0 0
907 2 11.993742182162832 15.300766812655507 11.399976924361239 0 0 0
889 1 15.504236997317715 12.417346517945965 11.233238789571061 0 0 0
830 1 16.73265677267935 3.7736768966214775 13.076200995494544 0 0 0
849 1 14.694422668772516 6.059918783984918 11.64389368401256 0 0 0
850 1 16.46473822163192 7.303587278749695 13.438938698293212 0 0 0
212 2 17.909374786430305 2.77472282164658 2.4656311456638202 0 0 0
881 2 1.8300670116520457 11.867888583609275 11.240197440565542 0 0 0
862 2 3.6406144064661135 11.055833608601464 13.431981546605932 0 0 0
863 1 4.680392808737427 9.279921225280052 11.796214744728443 0 0 0
4862 2 5.26576834130686 8.912897720474176 -0.7047317871893841 0 0 1
865 2 8.052217978209917 9.043970933333256 11.595261056617037 0 0 0
864 2 6.3453632143209875 10.107515288085972 13.553347754274988 0 0 0
887 1 11.697270998429731 12.540151662187133 11.39806666243863 0 0 0
866 1 9.951477790879139 10.759709300863316 13.181384295115832 0 0 0
666 1 11.516468185576299 8.95109191040675 11.7465031305109 0 0 0
868 2 13.405015953315141 10.631504979184339 13.241785537983027 0 0 0
1069 1 14.789949891239068 9.10780923812611 15.069463802700739 0 0 0
870 1 16.865532990616764 10.451062510164899 13.311325861506802 0 0 0
869 2 14.800334605141574 8.90327683473384 11.801758855028723 0 0 0
890 2 16.883586509417754 13.731871097494414 13.499283565455581 0 0 0
848 1 14.75577539793069 6.015086480093298 14.989852583868569 0 0 0
886 2 9.723848804333382 13.723263781981853 12.934387876917688 0 0 0
1029 2 15.275353873290737 2.033888255838873 14.830043652604271 0 0 0
70 2 17.647422765364936 8.59988035498504 2.054658259186295 0 0 0
851 2 18.01951538641652 5.851482611050977 11.917759649763733 0 0 0
883 1 5.0689792103268125 12.306394229187097 11.561059936178076 0 0 0
882 1 3.7250376007912243 13.796720241967979 12.962803203699165 0 0 0
905 2 8.072302639187178 15.742964518941944 11.17902221883891 0 0 0
291 2 18.0281632818238 12.565410385851916 2.408556860292712 0 0 0
885 2 8.361984850468565 12.06960112407286 10.917379910363712 0 0 0
884 1 6.913478735110329 13.864871778911482 12.643831412311172 0 0 0
888 1 13.355131223660248 13.707105469368663 13.084032448171694 0 0 0
1087 1 11.635822559622476 12.098695612623702 14.754692683622478 0 0 0
1065 2 8.018548042399166 8.809645838177671 14.645490216749646 0 0 0
1107 1 11.956739550045365 15.298557644763592 14.603042217737055 0 0 0
1045 2 8.236097804312294 5.53821049726533 14.6194837628893 0 0 0
1263 2 4.304164031203703 8.2252237479213 14.46084621447696 0 0 0
1083 2 4.9330403305055235 12.715822490029456 15.100826544992508 0 0 0
842 2 4.68467338573566 5.615408957372061 15.104261373109033 0 0 0
109 1 14.749865200215142 15.48418611277162 -1.1630786167350635 0 0 0
67 1 11.962285888307342 8.536553262654841 -1.1683470649524992 0 0 0
1002 2 3.232699624383172 0.9262877064028123 16.14717539577212 0 0 0
1204 2 5.017749437517239 2.3915861198121515 18.242965484973947 0 0 0
1004 2 6.641198445970652 0.8215970615815515 16.51673389374945 0 0 0
1006 2 8.798500628174908 2.342378574255247 18.119567202924657 0 0 0
808 1 9.573644760829119 0.30756876419208135 16.730383762354364 0 0 0
1008 1 13.447118894235853 0.43414150551359154 16.3043793291625 0 0 0
1227 2 11.618036401743211 1.9081623400403354 17.909408046511555 0 0 0
1803 2 5.281136686826832 -0.4332473335077438 27.819272921621025 0 0 0
1906 2 11.11491914299826 15.174199038362332 27.52289751829139 0 0 0
1030 1 16.539120181280765 0.28957242218861956 16.4503169429051 0 0 0
1229 2 14.803615967022171 1.9973091435468175 17.884596188430447 0 0 0
1027 2 8.44269937350914 2.8154729199492943 15.20161056491408 0 0 0
1903 1 4.656361042926248 15.086186354804502 28.011033335997578 0 0 0
1022 2 3.230337141682575 4.007882380773197 16.327063961776073 0 0 0
1043 2 4.807655703299629 5.442130346748805 18.725832049395425 0 0 0
1042 2 3.0870106376678077 7.053321453945488 16.83733943055757 0 0 0
1707 2 11.248442985001052 15.57388850522887 24.555907077534282 0 0 0
1025 2 6.650979349761869 4.216311259858883 17.138328960401083 0 0 0
1245 2 8.386337022381868 5.79371596720846 18.04992078393524 0 0 0
1044 1 6.465543342701852 7.120886234675505 16.225474192014435 0 0 0
1026 1 10.239576954122123 4.347392213600398 16.45405572996715 0 0 0
9820 2 4.977499660572261 15.186653818553443 31.21757298106681 2 -1 1
1028 1 13.333349739251613 3.959868373430636 16.183569639534564 0 0 0
1247 2 11.670182263505794 5.746440614303552 18.107321287138987 0 0 0
1048 1 13.059152825124988 7.481591484355284 16.530875610992315 0 0 0
1046 1 9.698967889602413 7.400945167314099 16.20420959913832 0 0 0
1049 2 16.373133100367397 3.9714162449761403 16.565045820531886 0 0 0
1249 2 14.586586605903484 5.707459313749522 17.699477424284307 0 0 0
1050 2 16.33285657896687 7.1795287601683935 16.364297437971413 0 0 0
1891 1 15.96687340859523 14.257300466352337 29.627060697765174 0 0 0
6275 2 1.9618652013165994 15.412210090921576 27.689388400343518 -1 1 0
1081 2 3.1010043340453795 10.758310091513897 16.15984103999766 0 0 0
1262 2 4.87484397794454 9.043305218002697 18.264181943250417 0 0 0
1064 2 5.738928233278255 10.528687812926552 16.12832174812631 0 0 0
1265 2 7.892344370658908 9.07370339359821 17.60001324585717 0 0 0
1661 2 2.13755798357038 6.16703118951841 24.4832901109136 0 0 0
1066 2 9.721431729091709 10.428248923478652 16.151953253503336 0 0 0
1267 2 10.83938262612999 8.834062946383614 18.090857535996637 0 0 0
1068 2 12.69528012825827 10.847085681955742 16.736955536662872 0 0 0
1105 1 8.220810149949468 15.689783425268287 15.249006453282732 0 0 0
1305 2 8.304195596841137 15.604335103564848 18.346923969267667 0 0 0
1269 1 14.651977658399078 9.080648367868065 18.061037189855362 0 0 0
1070 1 16.597996986645807 10.653849833262568 16.65620284800077 0 0 0
1441 2 1.788780421860314 6.039003208199669 21.604545206135853 0 0 0
1283 1 4.857526237746573 12.399254891801313 18.140399707937803 0 0 0
1082 2 3.596572225698945 14.062349547083956 16.613369562261745 0 0 0
1889 1 14.696706723952891 11.968909441074404 28.06542041247685 0 0 0
1925 1 8.089801975157132 15.52512685463349 27.74112633602731 0 0 0
2049 2 14.764308786721111 5.605165640552508 31.096113536626845 0 0 0
2029 2 14.783179720249459 2.43063441520606 31.287546501189993 0 0 0
1285 1 8.023018285100733 11.723683436113829 17.742857902230636 0 0 0
1084 2 6.675812029615708 14.065618826071766 16.826950393509776 0 0 0
1086 2 9.934797393474303 13.563699925127686 15.982788837960381 0 0 0
1287 2 11.326418196320189 12.190942190948043 18.299815735332185 0 0 0
1088 1 13.482587147072437 14.018420776052988 16.390438464058843 0 0 0
1303 1 5.0870016770897735 15.733388671207843 18.559075447671933 0 0 0
1309 1 15.15878681547511 15.625028506095772 18.34948289270066 0 0 0
1289 2 14.776864683080351 12.16122558046219 18.05350187791328 0 0 0
1090 1 16.664231338050314 13.805158580565077 16.8632081480633 0 0 0
2089 1 14.720814858647167 12.18804329291836 31.03648116182537 0 0 0
6334 1 2.0885988197144707 5.432840221436533 27.958600412985934 1 0 -1
1401 1 3.515581336074206 1.0061983177062954 19.911142482773496 0 0 0
1243 1 5.193827616568207 2.2196894863231855 21.23748450475731 0 0 0
1402 2 3.3014699261690046 0.559813388280511 23.166665319884064 0 0 0
1405 1 6.542617254917541 0.4946875109398947 19.79189151656776 0 0 0
1225 2 8.183367092945911 1.847483085583463 21.291088083205068 0 0 0
1423 2 6.208255250603567 0.7449647056794715 23.101514114568417 0 0 0
1425 1 10.319620292710898 0.34484521514649746 22.59950521282757 0 0 0
1206 2 10.347008404978297 0.5631795210279484 19.744264295336837 0 0 0
1208 2 13.718261015698598 0.48368823969216235 19.404335878454663 0 0 0
1427 1 11.92881443692349 2.229264386971209 21.230604380160408 0 0 0
1881 1 2.030682795743838 12.436147758076865 27.30829972879748 0 0 0
1431 2 16.87863880821729 1.072639157129545 19.47175670237603 0 0 0
1429 1 14.757765270410662 2.1716859226139142 21.291105087402787 0 0 0
1410 1 16.567660929361764 0.5310387885475063 22.563612792930094 0 0 0
2051 1 17.698527524202774 5.694287230808144 31.17467809071112 0 0 0
1222 2 3.071302525621941 3.6070977562052295 19.782589188699504 0 0 0
1443 2 5.025872235443563 5.250243717545742 21.5338432471677 0 0 0
5478 2 2.8219526036088736 7.285075997251798 19.50600600459317 1 1 1
1442 2 3.664636712004466 7.328433809228653 22.9415575848011 0 0 0
1422 2 3.5002162404591823 4.181234036437891 23.2779537721964 0 0 0
1224 2 7.190653795474106 3.64845751088345 19.999006027460716 0 0 0
1445 2 7.846707065257554 5.439118323747953 21.49021891821675 0 0 0
1244 2 6.213414712923127 7.241596663456653 19.195573273155127 0 0 0
1246 2 9.565349388350896 7.32137041314017 19.546963815007082 0 0 0
1424 1 6.675540762961557 3.496929256454874 23.246481857495308 0 0 0
1444 2 6.747545275423392 7.66508295115327 22.218688624181897 0 0 0
1426 1 9.89957326185944 3.8543540254217072 22.45443500080436 0 0 0
1226 2 10.08728445927121 3.946259375793727 19.72351011295378 0 0 0
1446 2 9.780264270864537 7.216981593188766 22.15323703061371 0 0 0
1228 1 13.273987328314302 4.196148862968619 19.098586151324373 0 0 0
1447 1 11.879492747880297 5.8163582285055915 21.29523579557474 0 0 0
1248 2 13.265968419012543 7.128937776998326 19.682170796355678 0 0 0
1448 1 13.33524551488385 7.603229653793017 22.714368395130485 0 0 0
1428 2 13.12575356593826 3.6629961618806197 22.882447606024435 0 0 0
1230 2 16.095627057722385 4.090207918177277 19.24886870505016 0 0 0
1449 2 15.022270954113777 5.5690946516109125 21.31810034831558 0 0 0
1430 2 16.440354560715846 4.309904748974828 23.294632030952098 0 0 0
1450 2 16.344646245839463 7.537844838227603 23.18249203137579 0 0 0
1250 1 16.253032943178695 7.12919439033733 19.512927902361014 0 0 0
1062 2 3.194268056087527 10.52740712766209 19.556123660233137 0 0 0
1463 2 4.370863141105971 8.877184957634325 20.99221170380476 0 0 0
1888 2 13.489205562181725 13.53511752163586 29.556235660075696 0 0 0
1462 1 3.2725215984578075 10.16373606106842 23.115430475980713 0 0 0
1264 1 6.484675123296746 10.630938211080023 19.376070938551322 0 0 0
1465 1 8.030501004201076 9.084316960076746 20.620802808941942 0 0 0
1464 1 6.498382678433267 10.257973473552155 23.043511640908115 0 0 0
1266 2 9.777793823295225 10.636998449749857 19.624521355927676 0 0 0
1268 2 13.189981253073876 11.013659136465265 19.720073030530916 0 0 0
1467 1 11.511719074325256 8.835104807497872 21.063542211936845 0 0 0
1468 2 13.146733207269014 10.784784383096458 22.969824568037893 0 0 0
1466 1 9.489592105223034 10.264806747426361 22.76162726231551 0 0 0
1307 2 11.463355965097605 15.067967254963204 17.75331953154228 0 0 0
1469 2 14.661806291411803 8.855145141169446 21.1684198103184 0 0 0
1270 2 16.303983170388587 10.434748967791508 19.93529525817504 0 0 0
1691 2 16.12452715966412 10.616510675882083 23.145637058879423 0 0 0
1483 2 4.485397980441531 11.82534241753734 21.475016452031966 0 0 0
1282 2 3.7243488619020315 14.139061513593429 19.95446521785541 0 0 0
1482 2 3.8363063361865812 14.278822506318654 22.944570637947514 0 0 0
1485 2 7.776212736287852 11.967856523897193 21.41446992731139 0 0 0
1284 2 6.602863462598196 13.700517426693798 19.989680481088094 0 0 0
1484 1 6.74747279002201 13.900870108337312 23.085793000161807 0 0 0
1486 2 9.395816952829675 13.521171900172886 22.88039114119075 0 0 0
1507 1 11.186891740342846 15.360323300128856 21.481177859365612 0 0 0
1286 2 9.172967287736356 13.648958798762221 19.87412078694611 0 0 0
1487 1 11.589722930514952 12.552843150530185 21.926324356650433 0 0 0
1288 1 13.228793042371704 13.963430089014592 19.491407557653172 0 0 0
1488 1 13.369158173388229 14.090097605328994 23.063519767011048 0 0 0
1470 2 14.873159609487267 12.294605578154771 21.074992524028662 0 0 0
1290 1 16.632733619897213 13.933227315734102 19.81309926070605 0 0 0
1490 1 14.876903800810723 15.569961016422683 21.269708592113478 0 0 0
1887 2 11.448949894152111 11.902027177324097 28.136528032721337 0 0 0
2069 1 14.357968133013655 9.04631542747402 31.079094862360755 0 0 0
1602 1 3.233519216797233 0.9075235272280044 26.38549791869998 0 0 0
1623 1 4.786194021219693 2.4876356216286832 24.798453305640912 0 0 0
1604 1 6.878482920913344 0.8576700739305503 26.21178246995058 0 0 0
1625 2 8.37702225473647 2.363013863414209 24.726762044914132 0 0 0
1606 1 10.101429212518603 0.8597588049666873 26.226616603762487 0 0 0
1408 2 13.478695105378545 0.777569845314569 22.856679357044897 0 0 0
1608 1 13.180493657948245 0.8264838476994247 26.207903621544673 0 0 0
1627 2 11.347918985783185 2.1835428767423886 24.527430576342173 0 0 0
1829 2 16.22148727548356 0.6803247658242815 26.086337695181324 0 0 0
1629 2 15.338225907786468 2.272092940233547 24.348435615582066 0 0 0
5187 1 1.9461628960537534 15.639848700784759 24.514195780434235 0 0 0
1641 2 3.0406533182741935 3.8653702890274078 25.993167295150418 0 0 0
1643 2 5.202767093417732 5.4403402077044465 24.642723280694444 0 0 0
1624 1 6.7644284733268085 4.010132256828363 26.160641384442243 0 0 0
1645 1 8.224649770342648 5.421936834805788 24.156655015433966 0 0 0
1644 2 6.589114555192241 6.7974376020113 26.29903476286639 0 0 0
1626 1 9.86255226758658 4.2469884681139325 25.822734227857172 0 0 0
1628 2 13.22781466219766 3.858890492007392 26.102456955414496 0 0 0
1647 1 11.395021519837602 5.5411157594440015 24.061041357725014 0 0 0
1648 2 12.782543082046729 7.118090700894632 25.89573944924967 0 0 0
1646 2 9.919739482255219 6.672479140545397 26.306090429700728 0 0 0
1631 2 16.676899940308598 4.057886227702097 25.821550811662135 0 0 0
1649 2 14.70860341195861 5.682826023262929 24.346673387102005 0 0 0
1650 2 16.39628048395843 7.578609593855706 25.83853615890886 0 0 0
2111 2 17.206324767360158 15.652475861155667 31.34589277257254 0 0 0
1642 2 3.3027743671095955 7.597707141136594 26.623458924143275 0 0 0
1662 1 3.87690918204786 10.491151422863123 25.980761599936883 0 0 0
1663 1 4.832112431385829 8.29775959779173 24.770054851821385 0 0 0
1664 1 6.723315731585786 9.952144392209117 26.207664324991317 0 0 0
1665 2 8.32012984161958 8.599030155471 24.44954444832548 0 0 0
1865 1 9.52369166597736 10.053435871021 25.72998186208855 0 0 0
1667 2 11.672912711941581 8.868777944079651 24.14027750838373 0 0 0
1668 2 12.976641688890613 10.73413121768672 26.45965664489273 0 0 0
1669 1 14.422808223840555 8.824141839069275 24.688302795496828 0 0 0
1670 1 16.450955038635463 10.529517797915393 26.295535266580384 0 0 0
1801 2 1.8217023447704435 -0.480803513871642 28.012779768524368 0 0 0
1281 1 1.8118496877973729 12.614983672858866 17.957036986938444 0 0 0
1690 1 17.677333663401438 12.382945079303868 28.589555355543503 0 0 0
1683 1 5.561282859815112 12.166522319568486 24.493645657909077 0 0 0
1682 1 3.6109905895964998 13.740927661624472 25.9961598068965 0 0 0
7686 1 2.301799542015367 12.537243109806214 23.942061926289945 0 -1 0
1705 1 8.514517314358109 14.86483033331689 24.61937564970484 0 0 0
1685 1 8.267608332864967 11.80274379092789 24.493185072722152 0 0 0
1684 2 6.441503913639123 13.954199763371177 26.042830344926834 0 0 0
1686 1 9.753363289791384 13.514171329639312 26.491737083379494 0 0 0
1687 2 11.13830890625572 12.009277997420554 24.90751803737617 0 0 0
1688 2 12.866496739585621 13.60459438434754 26.259511056151496 0 0 0
1489 1 15.787558633304439 13.68480333172612 23.211903208437356 0 0 0
1689 1 14.848970184195952 11.802025465440458 24.78900426909288 0 0 0
1709 2 16.112072622885442 13.646642357690467 26.344173774184156 0 0 0
5317 2 2.016023402496525 15.394334651810903 30.95750688016453 -1 0 -1
1508 1 14.681504747324821 15.619882958962664 24.75140212928914 0 0 0
1023 1 5.314615526638523 3.1275053982464174 15.292940122392753 0 0 0
1622 2 5.034738165457197 2.1409495817323707 27.939461596614777 0 0 0
1802 2 3.538908539172737 0.6654356910179731 30.11351989531489 0 0 0
2085 2 8.194662657668804 12.358144489396372 30.85164402874564 0 0 0