

# Styles
	units        metal
	atom_style   atomic
	pair_style   eam/fs

# Neighbour list
	neighbor        2.0 bin
	neigh_modify    check yes


# Boundary conditions
	boundary p p p


# ----------------- Atom Definition Section -----------------

read_data "en_min_W-Mo.data"
Reading data file ...
  orthogonal box = (0.046127475 0.046127475 0.11531869) to (31.603873 31.603873 79.009681)
  2 by 4 by 5 MPI processor grid
  reading atom labelmap ...
  reading atoms ...
  5000 atoms
  reading velocities ...
  5000 velocities
  read_data CPU = 0.033 seconds

# ----------------- Settings Section -----------------

include "annealing.in.settings"
# ----- SETTINGS -----
# Forcefield
	pair_coeff * * W-Mo.eam.fs W Mo

# Collection of atoms
	group alloy type  1 2
5000 atoms in group alloy


# ----------------- Run Section -----------------

include "annealing.in.run"
# Thermo output
	compute msd all msd
	compute myRDF all rdf 50

	fix 1 all ave/time 500 1 500 c_myRDF[*] file RDF.txt mode vector

	thermo          1000
	thermo_style    custom step temp press pe ke etotal vol density enthalpy c_msd[1] c_msd[2] c_msd[3]
	thermo_modify   flush yes

# Dump configuration
	dump            d1 all custom 50000 annealed_W-Mo.dump id type element x y z xu yu zu vx vy vz
	dump_modify     d1 element W Mo


# ----- INITIAL EQUILIBRATION AT Ti -----
	velocity        all create ${Ti} 872392 dist gaussian
	velocity        all create 300 872392 dist gaussian
	fix             feq all npt temp ${Ti} ${Ti} ${tdamp} aniso ${press} ${press} ${pdamp}
	fix             feq all npt temp 300 ${Ti} ${tdamp} aniso ${press} ${press} ${pdamp}
	fix             feq all npt temp 300 300 ${tdamp} aniso ${press} ${press} ${pdamp}
	fix             feq all npt temp 300 300 0.1 aniso ${press} ${press} ${pdamp}
	fix             feq all npt temp 300 300 0.1 aniso 1 ${press} ${pdamp}
	fix             feq all npt temp 300 300 0.1 aniso 1 1 ${pdamp}
	fix             feq all npt temp 300 300 0.1 aniso 1 1 1
	run             200000    # 200 ps
Neighbor list info ...
  update: every = 1 steps, delay = 0 steps, check = yes
  max neighbors/atom: 2000, page size: 100000
  master list distance cutoff = 7.3
  ghost atom cutoff = 7.3
  binsize = 3.65, bins = 9 9 22
  2 neighbor lists, perpetual/occasional/extra = 1 1 0
  (1) pair eam/fs, perpetual
      attributes: half, newton on
      pair build: half/bin/atomonly/newton
      stencil: half/bin/3d
      bin: standard
  (2) compute rdf, occasional, copy from (1)
      attributes: half, newton on
      pair build: copy
      stencil: none
      bin: none
Per MPI rank memory allocation (min/avg/max) = 4.088 | 4.092 | 4.097 Mbytes
   Step          Temp          Press          PotEng         KinEng         TotEng         Volume        Density        Enthalpy       c_msd[1]       c_msd[2]       c_msd[3]   
         0   300            2635.34       -39329.129      193.85144     -39135.277      78570.207      14.790458     -39006.041      0              0              0            
      1000   312.33849      914.69887     -39125.87       201.82422     -38924.045      79559.937      14.606464     -38878.624      0.0043833224   0.0040280233   0.012262457  
      2000   295.66457      1624.3585     -39134.253      191.05001     -38943.203      79507.709      14.616059     -38862.594      0.0042044696   0.0038710881   0.011866103  
      3000   300.44524     -982.85265     -39130.942      194.13914     -38936.803      79593.723      14.600264     -38985.629      0.0047546295   0.0042903624   0.012308301  
      4000   300.51401      1042.5594     -39133.417      194.18358     -38939.233      79531.546      14.611678     -38887.481      0.0047411424   0.0039814309   0.0099662046 
      5000   295.55048      806.73711     -39132.002      190.97629     -38941.025      79531.593      14.61167      -38900.979      0.0042158793   0.0044707432   0.0097750367 
      6000   302.69542     -316.30564     -39131.161      195.59314     -38935.567      79574.344      14.60382      -38951.277      0.0041868485   0.0048835476   0.011130096  
      7000   297.84396     -1588.8119     -39134.711      192.45827     -38942.252      79596.016      14.599843     -39021.184      0.0044076044   0.0046001275   0.013005503  
      8000   306.81495      1755.7311     -39133.431      198.25506     -38935.176      79512.665      14.615148     -38848.042      0.004051834    0.0035421923   0.015333745  
      9000   299.17862      2328.5938     -39132.423      193.32069     -38939.102      79495.545      14.618296     -38823.564      0.0038946617   0.0036830466   0.013098661  
     10000   303.19568      1025.9613     -39131.984      195.9164      -38936.068      79532.277      14.611544     -38885.139      0.0042679301   0.0045010625   0.010175432  
     11000   300.56198      173.56261     -39129.886      194.21458     -38935.671      79568.965      14.604807     -38927.052      0.0046870486   0.0043308288   0.010261439  
     12000   298.2363       119.47931     -39132.614      192.71179     -38939.902      79564.383      14.605648     -38933.969      0.0044437272   0.0036512514   0.012493178  
     13000   305.02067      857.98955     -39133.674      197.09565     -38936.579      79528.886      14.612167     -38893.99       0.0038027038   0.0037569999   0.014690157  
     14000   298.83206     -79.268937     -39134.41       193.09675     -38941.313      79549.314      14.608415     -38945.249      0.0040585212   0.0038998196   0.014350281  
     15000   299.53931      421.93863     -39131.606      193.55375     -38938.053      79545.274      14.609157     -38917.104      0.0044133685   0.0037628727   0.012749685  
     16000   299.56539     -191.26326     -39131.817      193.57061     -38938.246      79567.67       14.605045     -38947.745      0.0043585198   0.0043641264   0.010141877  
     17000   300.12969     -1154.2938     -39137.212      193.93524     -38943.276      79570.58       14.604511     -39000.603      0.0045623179   0.0048457838   0.0083875921 
     18000   300.58402      437.57172     -39132.558      194.22882     -38938.329      79537.772      14.610535     -38916.606      0.0043601554   0.004260703    0.0095565844 
     19000   298.36486     -208.04627     -39129.641      192.79486     -38936.847      79577.974      14.603154     -38947.18       0.0044657672   0.0037764501   0.014121539  
     20000   300.65583      692.01765     -39134.082      194.27522     -38939.807      79526.599      14.612587     -38905.457      0.0045413868   0.0039876162   0.013034248  
     21000   300.3239       73.94692      -39132.444      194.06074     -38938.383      79563.976      14.605723     -38934.711      0.0040917551   0.0039103781   0.01563764   
     22000   303.78794     -1489.817      -39129.641      196.2991      -38933.342      79621.328      14.595202     -39007.379      0.0044416453   0.004394809    0.013530629  
     23000   299.11427      35.809215     -39129.783      193.2791      -38936.504      79580.427      14.602703     -38934.725      0.0042720792   0.0043922345   0.011525177  
     24000   297.60621     -1618.2394     -39138.091      192.30464     -38945.786      79578.884      14.602987     -39026.163      0.0039363773   0.0048081238   0.011351925  
     25000   303.95349     -296.08642     -39131.634      196.40607     -38935.228      79580.623      14.602667     -38949.934      0.0042096335   0.0041902021   0.012230197  
     26000   293.33668      358.11106     -39133.272      189.54579     -38943.726      79548.067      14.608644     -38925.946      0.0042017935   0.0037695752   0.012475711  
     27000   295.34369     -253.29415     -39129.333      190.84266     -38938.49       79571.731      14.604299     -38951.07       0.0050211459   0.0036816698   0.012490559  
     28000   298.94697     -2451.1274     -39131.682      193.171       -38938.511      79620.51       14.595352     -39060.32       0.0045383477   0.0041067229   0.015274625  
     29000   301.86551      2121.7037     -39130.691      195.05688     -38935.634      79523.567      14.613144     -38830.324      0.0038561616   0.0045517348   0.012261317  
     30000   292.90363     -868.53536     -39131.874      189.26597     -38942.608      79581.585      14.602491     -38985.749      0.0043570006   0.0043298318   0.011825462  
     31000   296.41485     -110.38427     -39130.004      191.53482     -38938.469      79578.615      14.603036     -38943.952      0.0045135746   0.004166996    0.013177527  
     32000   297.54482      1428.5583     -39131.449      192.26497     -38939.184      79524.201      14.613028     -38868.277      0.0044818297   0.0039949411   0.014071379  
     33000   299.31209     -2120.2095     -39134.847      193.40693     -38941.44       79610.799      14.597132     -39046.792      0.0048955141   0.0042113648   0.013018259  
     34000   303.12775     -21.408425     -39133.309      195.8725      -38937.436      79556.108      14.607167     -38938.499      0.0042398376   0.0041979515   0.012023962  
     35000   303.09901      1084.3867     -39130.011      195.85393     -38934.157      79537.257      14.610629     -38880.325      0.003784461    0.0050542975   0.011157834  
     36000   301.60339      1152.6836     -39133.704      194.8875      -38938.816      79533.186      14.611377     -38881.596      0.0041563136   0.0047634834   0.010461945  
     37000   306.28204      673.09588     -39132.831      197.91072     -38934.921      79546.655      14.608903     -38901.502      0.0044919339   0.0038730748   0.012175173  
     38000   298.26987      1085.337      -39133.882      192.73348     -38941.149      79528.08       14.612315     -38887.275      0.0044999889   0.0040060877   0.010659667  
     39000   300.12358     -163.77992     -39133.685      193.93129     -38939.754      79571.653      14.604314     -38947.888      0.004292795    0.0048294609   0.011938347  
     40000   305.8887      -431.47769     -39132.218      197.65655     -38934.561      79578.527      14.603052     -38955.992      0.0038514179   0.0047595546   0.013647073  
     41000   305.53829      559.54251     -39135.795      197.43013     -38938.365      79530.901      14.611797     -38910.589      0.0034187425   0.0041339579   0.014357555  
     42000   304.45553     -341.22495     -39129.857      196.73047     -38933.126      79578.972      14.60297      -38950.075      0.0043306007   0.004687546    0.012687235  
     43000   297.14892      513.07827     -39130.63       192.00915     -38938.621      79559.952      14.606462     -38913.143      0.0049089099   0.0047269949   0.010283963  
     44000   293.1932       1637.0177     -39131.167      189.45308     -38941.714      79516.995      14.614352     -38860.468      0.0041062206   0.0043873833   0.0099833737 
     45000   303.95682      17.195136     -39133.107      196.40823     -38936.698      79567.679      14.605043     -38935.845      0.0042236303   0.004336876    0.012861305  
     46000   298.84948     -967.82108     -39133.55       193.10801     -38940.442      79581.797      14.602452     -38988.514      0.0036798869   0.0048975819   0.016409393  
     47000   298.49443      318.61652     -39127.796      192.87858     -38934.917      79571.488      14.604344     -38919.093      0.0037687972   0.0046128178   0.013652858  
     48000   296.70944     -727.29166     -39133.145      191.72517     -38941.42       79575.561      14.603596     -38977.542      0.0043677892   0.0041131045   0.011898068  
     49000   300.15884     -2781.8517     -39129.948      193.95407     -38935.994      79643.24       14.591186     -39074.278      0.0054233421   0.0043352933   0.012922274  
     50000   300.38281      1061.145      -39133.055      194.0988      -38938.956      79523.534      14.613151     -38886.287      0.0047164663   0.0041757536   0.010997127  
     51000   302.63         1571.2357     -39128.229      195.55087     -38932.678      79540.605      14.610014     -38854.674      0.0037034564   0.0044603279   0.013157296  
     52000   298.43773     -586.69482     -39131.65       192.84194     -38938.808      79586.313      14.601623     -38967.951      0.0040274924   0.0048212858   0.011175213  
     53000   302.33741      1714.1931     -39136.611      195.36181     -38941.249      79496.8        14.618065     -38856.194      0.0044689995   0.0044249674   0.0087323961 
     54000   302.18672      1184.5356     -39135.411      195.26444     -38940.147      79502.9        14.616943     -38881.368      0.0043766955   0.0039802889   0.01100431   
     55000   303.82986      902.96144     -39135.325      196.32619     -38938.999      79529.395      14.612074     -38894.177      0.0040441867   0.0037277042   0.012386285  
     56000   304.70881      1540.9176     -39134.252      196.89414     -38937.357      79511.805      14.615306     -38860.886      0.0041746192   0.0038190023   0.011617261  
     57000   298.9889       181.30945     -39133.726      193.19809     -38940.528      79546.71       14.608893     -38931.526      0.0043912638   0.0046852542   0.010816261  
     58000   301.28473      876.74787     -39128.467      194.6816      -38933.786      79569.053      14.604791     -38890.244      0.0041813852   0.0044176638   0.01238532   
     59000   303.17489      60.174724     -39136.318      195.90296     -38940.415      79538.574      14.610387     -38937.428      0.0041053685   0.0037162473   0.012737189  
     60000   303.91788     -2073.9729     -39128.182      196.38306     -38931.799      79633.564      14.59296      -39034.883      0.0052065035   0.0041007891   0.014517857  
     61000   296.1744       874.54017     -39132.542      191.37945     -38941.163      79528.998      14.612147     -38897.752      0.0045724887   0.0041276904   0.01079055   
     62000   303.7814       449.34211     -39132.263      196.29487     -38935.968      79549.972      14.608294     -38913.658      0.0039447138   0.004318575    0.010545988  
     63000   293.92551     -1020.4756     -39129.221      189.92628     -38939.295      79602.493      14.598655     -38989.996      0.0041060333   0.0046194065   0.012769668  
     64000   303.1025      -1412.3919     -39132.302      195.85619     -38936.446      79610.061      14.597268     -39006.626      0.0045971078   0.0047333853   0.016827335  
     65000   302.61722     -477.09717     -39131.917      195.54261     -38936.374      79560.917      14.606284     -38960.066      0.0042841505   0.0041590031   0.013325154  
     66000   293.81551     -1463.9281     -39128.333      189.8552      -38938.478      79621.743      14.595126     -39011.229      0.0044684289   0.0042692351   0.013651781  
     67000   298.81173     -514.36137     -39135.852      193.08361     -38942.769      79558.046      14.606811     -38968.31       0.0046916713   0.0045052489   0.011467415  
     68000   301.559        3593.0446     -39134.58       194.85882     -38939.722      79457.719      14.625255     -38761.53       0.0037374485   0.0053804724   0.0076123278 
     69000   301.55343     -824.72526     -39133.328      194.85522     -38938.472      79588.902      14.601148     -38979.441      0.0039754855   0.0046493697   0.012435639  
     70000   302.75995     -1508.1539     -39133.567      195.63484     -38937.933      79592.381      14.60051      -39012.854      0.0041075095   0.0041367096   0.014700215  
     71000   306.18771      1122.7968     -39132.418      197.84976     -38934.568      79529.025      14.612142     -38878.834      0.0042864987   0.0047251668   0.011638028  
     72000   298.91916      3614.7599     -39132.926      193.15303     -38939.773      79462.361      14.6244       -38760.494      0.0036498411   0.0041495341   0.010530464  
     73000   300.46868     -642.13733     -39132.344      194.15429     -38938.19       79568.438      14.604904     -38970.08       0.0038926665   0.0044410018   0.011397238  
     74000   292.53992      1174.0612     -39131.343      189.03095     -38942.312      79540.054      14.610115     -38884.026      0.0041659584   0.0047239747   0.0097644295 
     75000   303.84393      311.24756     -39130.836      196.33528     -38934.5        79562.933      14.605914     -38919.044      0.0040614117   0.0046259137   0.01141026   
     76000   298.36263      680.2387      -39133.489      192.79342     -38940.696      79526.296      14.612643     -38906.931      0.0041861721   0.0040140343   0.012270055  
     77000   301.52812     -1295.6834     -39134.97       194.83887     -38940.131      79585.77       14.601723     -39004.492      0.004523801    0.0038851009   0.012576038  
     78000   298.3069      -1212.9416     -39136.45       192.75741     -38943.692      79570.579      14.604511     -39003.932      0.0041445553   0.0043165428   0.012533683  
     79000   300.07807      1262.671      -39131.211      193.90189     -38937.309      79528.921      14.612161     -38874.633      0.0040188082   0.0045055992   0.0099217572 
     80000   293.98155     -1410.1981     -39133.488      189.96249     -38943.526      79594.079      14.600199     -39013.583      0.0040099844   0.0046322672   0.010689026  
     81000   295.94073      990.92384     -39131.373      191.22845     -38940.144      79530.993      14.61178      -38890.956      0.0039501605   0.004169032    0.012956275  
     82000   296.59662     -109.36486     -39130.02       191.65227     -38938.368      79569.033      14.604794     -38943.799      0.0043417649   0.0044707922   0.013954981  
     83000   303.27497      2503.0287     -39134.566      195.96763     -38938.598      79495.094      14.618378     -38814.406      0.0039289571   0.0039848738   0.012165541  
     84000   299.42567      2651.1989     -39131.924      193.48033     -38938.444      79502.02       14.617105     -38806.888      0.0041881197   0.0040284442   0.0096362387 
     85000   301.217        538.03395     -39133.383      194.63783     -38938.745      79535.882      14.610882     -38912.036      0.0046325093   0.0043859      0.0096013151 
     86000   300.66824      1226.9228     -39139.756      194.28324     -38945.473      79499.791      14.617515     -38884.593      0.0042249515   0.0041077069   0.009882949  
     87000   301.63501     -1643.2786     -39131.08       194.90794     -38936.172      79604.138      14.598354     -39017.818      0.003964734    0.0045485496   0.013892695  
     88000   302.48472     -49.030974     -39135.781      195.457       -38940.324      79560.578      14.606346     -38942.759      0.0038568316   0.0042992221   0.013192251  
     89000   306.97907     -208.6488      -39131.214      198.36111     -38932.853      79575.651      14.60358      -38943.216      0.0040307533   0.0039839009   0.015697757  
     90000   301.57656     -342.27945     -39134.712      194.87017     -38939.842      79570.377      14.604548     -38956.841      0.0042533241   0.0040996577   0.012305426  
     91000   303.39702      1032.602      -39131.344      196.0465      -38935.298      79549.331      14.608412     -38884.028      0.0046722494   0.0037007374   0.0094618331 
     92000   298.73934      1571.9115     -39132.402      193.03683     -38939.366      79526.264      14.612649     -38861.342      0.0047871674   0.0041050707   0.0094965961 
     93000   302.84086      2191.0423     -39132.949      195.68712     -38937.262      79500.983      14.617296     -38828.541      0.0041771065   0.0040740431   0.011634212  
     94000   300.1111      -590.4721      -39128.964      193.92323     -38935.04       79601.677      14.598805     -38964.377      0.0041349867   0.003999449    0.015384647  
     95000   298.61274     -1947.8945     -39133.53       192.95503     -38940.575      79612.988      14.596731     -39037.367      0.0042918494   0.0041343571   0.012922164  
     96000   292.02938     -1859.8439     -39133.372      188.70105     -38944.671      79607.971      14.597651     -39037.082      0.0052086051   0.0045735058   0.01101491   
     97000   297.42546     -223.13847     -39130.039      192.18784     -38937.852      79574.445      14.603801     -38948.934      0.0044717976   0.0042857269   0.012569873  
     98000   296.42047      701.36879     -39137.94       191.53845     -38946.401      79520.636      14.613683     -38911.59       0.0035772932   0.0039188424   0.012562253  
     99000   296.97099      1082.6078     -39131.255      191.89418     -38939.361      79540.033      14.610119     -38885.615      0.0036669458   0.0044747417   0.01277393   
    100000   301.42602      3200.265      -39136.279      194.7729      -38941.506      79464.735      14.623963     -38782.78       0.0040525188   0.0042200772   0.0087596532 
    101000   299.75032     -2481.7003     -39130.97       193.6901      -38937.28       79630.76       14.593473     -39060.625      0.0046152177   0.0045561144   0.010890332  
    102000   297.38246      728.57545     -39130.298      192.16006     -38938.138      79554.871      14.607394     -38901.961      0.0044144765   0.003774657    0.012988541  
    103000   298.59707     -1126.5545     -39132.221      192.94491     -38939.276      79586.353      14.601616     -38995.237      0.0047096774   0.0039432639   0.013907458  
    104000   305.97695      130.39749     -39132.391      197.71358     -38934.678      79554.665      14.607432     -38928.203      0.0043738242   0.0045356043   0.012015621  
    105000   299.51374     -612.16738     -39131.941      193.53723     -38938.404      79575.994      14.603517     -38968.808      0.0039244045   0.0049131456   0.010049132  
    106000   302.00517      459.02583     -39135.034      195.14712     -38939.887      79546.336      14.608962     -38917.097      0.0042582485   0.0040703128   0.01050082   
    107000   303.52239     -468.43599     -39134.051      196.12751     -38937.924      79560.03       14.606447     -38961.185      0.0044065204   0.0042903868   0.012759821  
    108000   302.39222      679.24303     -39136.858      195.39722     -38941.461      79530.045      14.611954     -38907.744      0.0042015513   0.0036306898   0.014158128  
    109000   299.33365      984.29948     -39133.649      193.42086     -38940.228      79537.122      14.610654     -38891.365      0.0041374419   0.00376162     0.012317968  
    110000   305.48939     -997.82143     -39133.804      197.39852     -38936.406      79594.273      14.600163     -38985.976      0.0044786891   0.0044650786   0.012450196  
    111000   292.59133     -98.032167     -39126.831      189.06417     -38937.767      79587.197      14.601461     -38942.636      0.0043669598   0.0047024273   0.012458814  
    112000   292.03928     -99.663815     -39127.756      188.70745     -38939.049      79587.471      14.601411     -38944          0.0039707305   0.0044700949   0.011663661  
    113000   296.28068     -1195.172      -39130.862      191.44812     -38939.414      79599.819      14.599146     -38998.793      0.0045089754   0.0040882146   0.013238324  
    114000   296.36787      137.78853     -39130.259      191.50446     -38938.754      79572.704      14.604121     -38931.911      0.0048848131   0.0044456903   0.011487893  
    115000   303.25635      93.090684     -39134.191      195.9556      -38938.236      79547.933      14.608668     -38933.614      0.0049663063   0.0041392269   0.0091825569 
    116000   301.19612     -492.4935      -39132.844      194.62434     -38938.219      79568.419      14.604907     -38962.678      0.0041626357   0.0043613465   0.010325567  
    117000   296.74392      1584.9472     -39131.292      191.74746     -38939.544      79519.756      14.613845     -38860.88       0.0041307027   0.0043623584   0.011191278  
    118000   306.10423     -699.91903     -39130.316      197.79582     -38932.52       79594.422      14.600136     -38967.292      0.0047878633   0.0042038767   0.012698314  
    119000   299.92312      432.56963     -39134.434      193.80176     -38940.633      79541.076      14.609928     -38919.157      0.0042653404   0.0036082847   0.014775282  
    120000   301.38829      304.44122     -39129.07       194.74851     -38934.322      79570.673      14.604494     -38919.202      0.0042989344   0.0040739769   0.012605156  
    121000   297.95538     -116.85351     -39134.106      192.53027     -38941.575      79557.358      14.606938     -38947.378      0.0042471578   0.0041722947   0.010807583  
    122000   299.38352      1880.2986     -39132.357      193.45308     -38938.904      79516.723      14.614402     -38845.584      0.0045758498   0.003842517    0.0080713896 
    123000   304.16457     -819.95347     -39133.739      196.54246     -38937.197      79583.698      14.602103     -38977.926      0.0046225553   0.0038568434   0.011430939  
    124000   292.85715      107.33123     -39131.211      189.23593     -38941.975      79569.635      14.604684     -38936.644      0.004041279    0.0039927641   0.01384489   
    125000   295.0617      -673.74291     -39129.811      190.66045     -38939.15       79584.692      14.601921     -38972.617      0.0040252486   0.0042404903   0.014301723  
    126000   298.53691     -1260.21       -39131.001      192.90603     -38938.095      79601.251      14.598883     -39000.706      0.003732283    0.004648406    0.014516543  
    127000   295.55734     -356.36877     -39133.577      190.98072     -38942.597      79564.621      14.605604     -38960.294      0.0041994767   0.0042497559   0.012567408  
    128000   301.95959     -267.54419     -39131.11       195.11767     -38935.992      79571.468      14.604348     -38949.28       0.0045255792   0.0041768384   0.010972426  
    129000   297.02927      2125.1905     -39134.976      191.93184     -38943.044      79493.2        14.618727     -38837.601      0.0047373971   0.0035252418   0.010144667  
    130000   302.11214      1739.6676     -39132.599      195.21624     -38937.383      79510.435      14.615558     -38851.049      0.0044003612   0.0037021207   0.011284267  
    131000   293.52594      1036.1423     -39132.719      189.66808     -38943.051      79531.679      14.611654     -38891.617      0.0038029295   0.0038871027   0.012388203  
    132000   301.91858      631.89702     -39130.355      195.09117     -38935.264      79544.04       14.609383     -38903.892      0.0038433324   0.0043919653   0.013564943  
    133000   300.78257      530.71691     -39131.673      194.35711     -38937.316      79548.237      14.608613     -38910.965      0.0040425888   0.0042865691   0.012818797  
    134000   308.376       -893.76901     -39133.897      199.26377     -38934.633      79581.489      14.602508     -38979.027      0.004312352    0.0039345146   0.012996034  
    135000   294.66233     -1483.074      -39129.716      190.40239     -38939.314      79621.017      14.595259     -39013.016      0.0051045706   0.0039808561   0.010643439  
    136000   300.37687     -1338.6319     -39129.362      194.09496     -38935.267      79610.429      14.5972       -39001.783      0.0045723078   0.0046464635   0.011278959  
    137000   297.12255     -1273.6662     -39132.959      191.99212     -38940.967      79598.597      14.59937      -39004.245      0.004140143    0.0045134571   0.012709722  
    138000   296.87379     -2248.0558     -39129.526      191.83137     -38937.695      79635.267      14.592647     -39049.433      0.0041242561   0.0043261942   0.01510269   
    139000   297.20363      1242.5105     -39132.356      192.0445      -38940.312      79528.406      14.612255     -38878.637      0.0040297241   0.0038590867   0.01415476   
    140000   301.14582      1222.5593     -39131.84       194.59183     -38937.248      79537.552      14.610575     -38876.556      0.0039954456   0.0042350212   0.012985565  
    141000   302.71315      1782.7827     -39137.476      195.6046      -38941.871      79502.54       14.617009     -38853.407      0.0037960938   0.0039844653   0.010110451  
    142000   301.33363      1777.017      -39135.504      194.71319     -38940.79       79506.645      14.616255     -38852.607      0.0043174639   0.0038947603   0.010433299  
    143000   306.62562      1973.9093     -39130.76       198.13272     -38932.628      79517.894      14.614187     -38834.66       0.0042923015   0.0043849247   0.011308703  
    144000   296.48574      2398.6012     -39132.261      191.58062     -38940.68       79495.639      14.618278     -38821.668      0.0046205518   0.0034587085   0.012281203  
    145000   304.12078     -728.25748     -39135.833      196.51417     -38939.319      79556.561      14.607084     -38975.48       0.0047620773   0.0035749852   0.011203345  
    146000   296.09771     -362.58016     -39133.383      191.32989     -38942.053      79567.453      14.605085     -38960.059      0.0044415339   0.0041570894   0.011745992  
    147000   304.34688     -348.84427     -39131.619      196.66027     -38934.958      79584.034      14.602042     -38952.286      0.0039696933   0.0045664047   0.01399584   
    148000   301.77537      229.80089     -39134.609      194.99863     -38939.61       79549.253      14.608426     -38928.2        0.0035178648   0.0044855687   0.012473656  
    149000   292.62852     -457.29795     -39132.499      189.0882      -38943.411      79580.691      14.602655     -38966.125      0.0044927448   0.0039732625   0.01288848   
    150000   299.33209      2320.3722     -39131.485      193.41985     -38938.066      79509.079      14.615807     -38822.916      0.0044105751   0.0036461606   0.011622074  
    151000   301.85373      1428.8994     -39135.034      195.04927     -38939.985      79514.231      14.61486      -38869.07       0.004106911    0.0038643375   0.010224632  
    152000   297.01746      973.98464     -39132.485      191.92421     -38940.56       79530.332      14.611901     -38892.213      0.0047837804   0.0037831677   0.0098642152 
    153000   300.01667      478.72371     -39135.159      193.86221     -38941.296      79544.72       14.609258     -38917.529      0.0044291028   0.0043551177   0.011336367  
    154000   301.67474      1768.4433     -39130.62       194.93361     -38935.687      79518.839      14.614013     -38847.916      0.003421859    0.0045260254   0.013648854  
    155000   297.96972     -275.71481     -39134.85       192.53953     -38942.311      79552.846      14.607766     -38956.001      0.003747934    0.0041835878   0.012752366  
    156000   298.0412      -572.23721     -39131.032      192.58572     -38938.446      79592.14       14.600554     -38966.873      0.004975181    0.0039415412   0.01313745   
    157000   294.65588      303.44435     -39136.231      190.39822     -38945.833      79534.682      14.611102     -38930.769      0.0047904998   0.0041843122   0.010261534  
    158000   303.44543      470.16398     -39132.901      196.07778     -38936.823      79547.391      14.608768     -38913.479      0.0043353148   0.00475062     0.0081084899 
    159000   303.25149      559.81607     -39130.53       195.95246     -38934.578      79554.147      14.607527     -38906.781      0.003918222    0.004528775    0.011758737  
    160000   300.17942      2088.327      -39134.838      193.96738     -38940.87       79495.501      14.618304     -38837.253      0.003976509    0.0040755801   0.013629575  
    161000   304.08781     -799.33879     -39129.719      196.49287     -38933.226      79595.416      14.599953     -38972.937      0.0044498466   0.0042534602   0.015264584  
    162000   298.28916      404.12282     -39132.605      192.74595     -38939.859      79545.658      14.609086     -38919.795      0.004098308    0.004585789    0.010730133  
    163000   302.24667      528.33124     -39131.319      195.30317     -38936.016      79540.892      14.609961     -38909.787      0.0043528068   0.004266816    0.010111083  
    164000   303.66469     -2618.6249     -39130.56       196.21946     -38934.34       79643.476      14.591143     -39064.511      0.0048038654   0.004631858    0.013471857  
    165000   299.82283     -33.227068     -39134.733      193.73696     -38940.996      79552.222      14.607881     -38942.645      0.0045233218   0.0041842555   0.011816621  
    166000   297.11271     -742.6477      -39131.343      191.98576     -38939.357      79585.788      14.60172      -38976.247      0.0043702421   0.0037352893   0.015622016  
    167000   296.14614      195.72133     -39131.543      191.36119     -38940.182      79560.511      14.606359     -38930.463      0.0042234869   0.0037938446   0.015057116  
    168000   300.49365      1106.9666     -39130.631      194.17043     -38936.46       79534.797      14.611081     -38881.508      0.0040547393   0.0043066511   0.01069001   
    169000   297.19342      365.85085     -39131.453      192.03791     -38939.416      79568.401      14.60491      -38921.246      0.0042881481   0.0043079736   0.01128947   
    170000   300.40638      184.21395     -39131.806      194.11403     -38937.692      79564.788      14.605574     -38928.544      0.0038341372   0.0041603161   0.013413179  
    171000   299.63109      1676.5151     -39130.141      193.61306     -38936.528      79528.8        14.612183     -38853.31       0.0033643791   0.0048522254   0.011588166  
    172000   302.35082     -7.5664485     -39134.826      195.37047     -38939.455      79537.341      14.610614     -38939.831      0.0041882708   0.0040507707   0.010816536  
    173000   302.28125     -545.88063     -39133.452      195.32552     -38938.127      79558.51       14.606726     -38965.233      0.0043187852   0.0039607873   0.012358172  
    174000   301.15951      583.08866     -39135.327      194.60068     -38940.726      79528.993      14.612147     -38911.783      0.0043781993   0.0038162471   0.012313253  
    175000   303.69376      1101.703      -39135.094      196.23824     -38938.856      79513.344      14.615023     -38884.18       0.0037853563   0.0041719505   0.011737875  
    176000   298.29637     -656.50194     -39131.533      192.7506      -38938.782      79589.555      14.601029     -38971.395      0.0039599499   0.0046861891   0.012740391  
    177000   295.47274      468.4705      -39136.836      190.92605     -38945.91       79528.252      14.612284     -38922.657      0.004188962    0.004025209    0.013026944  
    178000   303.64242     -411.12966     -39133.177      196.20507     -38936.972      79570.58       14.604511     -38957.39       0.0044306065   0.0038251574   0.015452172  
    179000   297.55558      735.3285      -39130.42       192.27192     -38938.148      79548.389      14.608585     -38901.639      0.0041331166   0.0039302138   0.013773378  
    180000   302.31365      296.29984     -39133.302      195.34645     -38937.956      79553.673      14.607614     -38923.243      0.0039613251   0.00443209     0.012581525  
    181000   304.77325      201.32346     -39133.321      196.93577     -38936.385      79537.355      14.610611     -38926.391      0.0039836175   0.0044231734   0.011108808  
    182000   293.96345      1034.2058     -39138.36       189.95079     -38948.409      79517.059      14.61434      -38897.081      0.0041579189   0.0039970297   0.0099933535 
    183000   301.48477     -267.27005     -39132.211      194.81086     -38937.4        79570.948      14.604443     -38950.674      0.0042275874   0.004309181    0.012269905  
    184000   294.01441     -1695.5075     -39134.766      189.98372     -38944.782      79594.717      14.600082     -39029.013      0.0041564501   0.0039883478   0.016726219  
    185000   303.46098     -521.78468     -39131.135      196.08783     -38935.047      79589.739      14.600995     -38960.967      0.0041818578   0.0038962632   0.015815476  
    186000   302.89898     -493.77587     -39131.294      195.72468     -38935.569      79586.772      14.601539     -38960.097      0.0043851096   0.0039484217   0.01322733   
    187000   299.36046      2209.4542     -39134.865      193.43819     -38941.427      79504.595      14.616632     -38831.787      0.0042515732   0.0039938137   0.010999338  
    188000   307.92837      1342.7753     -39131.088      198.97453     -38932.114      79526.047      14.612689     -38865.463      0.0043355344   0.0042215532   0.010337595  
    189000   296.9321      -258.14577     -39131.711      191.86905     -38939.842      79565.387      14.605464     -38952.661      0.0039860168   0.0043588681   0.010176922  
    190000   297.57192      2241.3988     -39130.334      192.28248     -38938.051      79506.946      14.616199     -38826.823      0.0037456303   0.0043568664   0.011530096  
    191000   297.81008      483.74208     -39131.509      192.43638     -38939.073      79555.536      14.607272     -38915.053      0.0039592785   0.0045184722   0.01368223   
    192000   298.55106     -763.01085     -39131.81       192.91518     -38938.895      79581.164      14.602568     -38976.795      0.0049229206   0.0041249499   0.011191069  
    193000   299.09223     -1040.4836     -39136.796      193.26487     -38943.531      79564.722      14.605586     -38995.202      0.004973311    0.0038546914   0.01034623   
    194000   300.92118     -115.39363     -39134.748      194.44668     -38940.302      79553.482      14.607649     -38946.031      0.0039997613   0.0043559946   0.013883143  
    195000   300.89783     -1088.0059     -39128.19       194.43159     -38933.758      79595.919      14.599861     -38987.81       0.0043456048   0.0045271205   0.01542642   
    196000   300.70779      895.61328     -39132.801      194.30879     -38938.492      79547.865      14.608681     -38894.025      0.0044332372   0.0038724729   0.013247705  
    197000   301.71123      1679.3846     -39134.374      194.95719     -38939.417      79510.103      14.615619     -38856.075      0.0042375852   0.0038042909   0.010638267  
    198000   302.0946       399.58232     -39131.684      195.20491     -38936.479      79557.964      14.606826     -38916.637      0.0045136318   0.004397627    0.010393136  
    199000   292.79274     -1673.6408     -39133.683      189.19431     -38944.489      79603.284      14.59851      -39027.643      0.0042170435   0.0049041395   0.010687751  
    200000   299.68049     -2065.0543     -39131.528      193.64498     -38937.883      79629.446      14.593714     -39040.518      0.0040741224   0.0044780169   0.015819125  
Loop time of 95.7945 on 40 procs for 200000 steps with 5000 atoms

Performance: 180.386 ns/day, 0.133 hours/ns, 2087.803 timesteps/s, 10.439 Matom-step/s
92.6% CPU use with 40 MPI tasks x 1 OpenMP threads

MPI task timing breakdown:
Section |  min time  |  avg time  |  max time  |%varavg| %total
---------------------------------------------------------------
Pair    | 57.285     | 59.429     | 61.916     |  16.7 | 62.04
Neigh   | 0          | 0          | 0          |   0.0 |  0.00
Comm    | 22.36      | 24.872     | 27.17      |  25.9 | 25.96
Output  | 0.054494   | 0.067944   | 0.081182   |   3.0 |  0.07
Modify  | 8.7694     | 9.2209     | 9.6826     |   7.2 |  9.63
Other   |            | 2.205      |            |       |  2.30

Nlocal:            125 ave         136 max         113 min
Histogram: 1 3 5 3 8 4 7 2 3 4
Nghost:           1142 ave        1154 max        1131 min
Histogram: 4 3 2 7 4 8 3 5 3 1
Neighs:           7000 ave        7628 max        6403 min
Histogram: 3 4 2 6 5 9 4 0 4 3

Total # of neighbors = 280000
Ave neighs/atom = 56
Neighbor list builds = 0
Dangerous builds = 0
	unfix           feq


# ----- HEATING FROM Ti TO Thigh -----
	fix             fheat all npt temp ${Ti} ${Thigh} ${tdamp} aniso ${press} ${press} ${pdamp}
	fix             fheat all npt temp 300 ${Thigh} ${tdamp} aniso ${press} ${press} ${pdamp}
	fix             fheat all npt temp 300 2300 ${tdamp} aniso ${press} ${press} ${pdamp}
	fix             fheat all npt temp 300 2300 0.1 aniso ${press} ${press} ${pdamp}
	fix             fheat all npt temp 300 2300 0.1 aniso 1 ${press} ${pdamp}
	fix             fheat all npt temp 300 2300 0.1 aniso 1 1 ${pdamp}
	fix             fheat all npt temp 300 2300 0.1 aniso 1 1 1
	run             1000000   # 1 ns
Per MPI rank memory allocation (min/avg/max) = 5.351 | 5.354 | 5.359 Mbytes
   Step          Temp          Press          PotEng         KinEng         TotEng         Volume        Density        Enthalpy       c_msd[1]       c_msd[2]       c_msd[3]   
    200000   299.68049     -2065.0543     -39131.528      193.64498     -38937.883      79629.446      14.593714     -39040.518      0.0040741224   0.0044780169   0.015819125  
    201000   304.19402     -2614.1647     -39133.357      196.5615      -38936.796      79622.296      14.595025     -39066.71       0.0040951511   0.0043212131   0.013220051  
    202000   300.67995     -1256.9728     -39125.302      194.2908      -38931.011      79617.852      14.595839     -38993.475      0.004669324    0.0043802432   0.013626744  
    203000   314.31616      377.53405     -39129.56       203.10213     -38926.457      79569.381      14.604731     -38907.708      0.0050966235   0.0044204108   0.010275683  
    204000   309.40655      453.44986     -39128.149      199.92969     -38928.22       79567.715      14.605036     -38905.7        0.0043838227   0.004160836    0.012003883  
    205000   311.8076       2271.2547     -39125.143      201.48117     -38923.662      79543.938      14.609402     -38810.9        0.004078243    0.0041771694   0.013575189  
    206000   311.38462     -282.58755     -39126.341      201.20786     -38925.133      79609.255      14.597415     -38939.175      0.0040377187   0.0050514864   0.01366505   
    207000   316.65891      1095.1119     -39125.137      204.61595     -38920.521      79567.429      14.605089     -38866.136      0.0043010204   0.0041745052   0.012332258  
    208000   317.0509      -1559.997      -39124.564      204.86924     -38919.695      79637.301      14.592275     -38997.236      0.0053625066   0.0047038489   0.010082496  
    209000   313.57612      270.59145     -39122.388      202.62394     -38919.764      79591.454      14.60068      -38906.322      0.004692804    0.0047838773   0.010891401  
    210000   321.69195     -1615.6088     -39119.51       207.86816     -38911.642      79666.112      14.586998     -38991.976      0.0043359622   0.0049505385   0.015370146  
    211000   320.36557     -1701.4065     -39120.414      207.01109     -38913.403      79669.267      14.58642      -38998.006      0.0042744847   0.0046241257   0.017020303  
    212000   326.60745     -1485.4163     -39116.37       211.04441     -38905.325      79684.291      14.58367      -38979.203      0.0045289884   0.0050477293   0.017918433  
    213000   331.22808     -905.22662     -39114.82       214.03014     -38900.79       79668.524      14.586556     -38945.802      0.0047022853   0.0048611059   0.015273499  
    214000   321.15695      220.98145     -39113.284      207.52246     -38905.762      79636.218      14.592473     -38894.778      0.0048582085   0.0045593909   0.010915269  
    215000   334.45617      757.54398     -39112.296      216.11603     -38896.18       79633.922      14.592894     -38858.527      0.0049337515   0.0045997572   0.012773381  
    216000   330.56405      1144.7264     -39114.95       213.60105     -38901.349      79613.108      14.596709     -38844.467      0.0047738944   0.0048635775   0.014791449  
    217000   337.83243     -605.99534     -39111.079      218.29768     -38892.781      79679.243      14.584594     -38922.919      0.0051291275   0.0042193289   0.016188454  
    218000   337.29147     -1338.7293     -39112.371      217.94813     -38894.422      79694.439      14.581813     -38961.013      0.0044732706   0.0047088881   0.017661183  
    219000   336.9408      -172.96161     -39106.971      217.72153     -38889.249      79679.844      14.584484     -38897.851      0.0044634974   0.0055657008   0.017068961  
    220000   341.83311      2381.6604     -39104.797      220.8828      -38883.914      79628.172      14.593948     -38765.546      0.0042083619   0.0050996963   0.015445338  
    221000   337.55241     -416.45439     -39102.233      218.11674     -38884.117      79713.525      14.578321     -38904.837      0.0049916324   0.0049757383   0.013207466  
    222000   336.93331      1193.7456     -39104.746      217.71669     -38887.029      79650.215      14.589909     -38827.684      0.0048935382   0.0050793094   0.012665663  
    223000   349.68965     -307.85083     -39104.762      225.95947     -38878.802      79690.442      14.582544     -38894.114      0.0051928195   0.0047924645   0.015083649  
    224000   346.50349     -9.8439281     -39099.067      223.90067     -38875.167      79724.26       14.576358     -38875.656      0.0050993506   0.0048107786   0.015542493  
    225000   344.53838     -790.84585     -39103.629      222.63087     -38880.998      79710.119      14.578944     -38920.343      0.0051148003   0.0046862738   0.017329177  
    226000   358.60376     -1318.2662     -39102.051      231.71952     -38870.332      79725.635      14.576107     -38935.93       0.0046949749   0.0054424878   0.020167583  
    227000   351.41495     -1919.5618     -39098.539      227.07431     -38871.464      79768.399      14.568293     -38967.035      0.0051734533   0.0050192889   0.019508009  
    228000   349.8182       869.80948     -39095.818      226.04254     -38869.776      79711.175      14.578751     -38826.501      0.0052727474   0.0048426874   0.016653602  
    229000   357.77103      680.77766     -39092.701      231.18143     -38861.52       79715.843      14.577897     -38827.648      0.0054548089   0.0051818748   0.018076552  
    230000   360.22903     -2082.1571     -39093.049      232.76972     -38860.279      79802.436      14.562079     -38963.989      0.0058992204   0.0059247538   0.014933446  
    231000   358.30277      210.09531     -39091.026      231.52503     -38859.501      79745.109      14.572547     -38849.044      0.0052735072   0.0053861197   0.014229405  
    232000   365.70853     -1693.1549     -39088.518      236.31042     -38852.208      79794.878      14.563458     -38936.534      0.0058734998   0.0052249885   0.017993984  
    233000   368.13055      2216.2368     -39095.843      237.87546     -38857.967      79660.454      14.588034     -38747.776      0.0053606548   0.0051217793   0.016085418  
    234000   370.69471      2152.3399     -39089.707      239.53234     -38850.175      79696.171      14.581496     -38743.112      0.005356467    0.0052948534   0.012779076  
    235000   371.0873       1315.631      -39091.93       239.78603     -38852.144      79705.825      14.57973      -38786.693      0.0048848807   0.0052635904   0.015524764  
    236000   373.33239      74.284098     -39086.507      241.23674     -38845.27       79770.31       14.567944     -38841.572      0.0057471866   0.0062707556   0.01967117   
    237000   378.2765       1563.7068     -39083.268      244.43148     -38838.837      79747.631      14.572087     -38761.004      0.0048301522   0.0061418453   0.016970537  
    238000   377.54348      1842.9046     -39087.29       243.95782     -38843.332      79727.481      14.575769     -38751.625      0.0046181029   0.0064670196   0.01246469   
    239000   377.52135     -892.73209     -39084.566      243.94353     -38840.623      79804.866      14.561636     -38885.09       0.0054512505   0.0071047017   0.016854432  
    240000   381.75943      1353.0332     -39078.773      246.68205     -38832.091      79772.957      14.56746      -38764.723      0.0057215801   0.0068187593   0.017198861  
    241000   381.32065     -1012.1919     -39079.507      246.39852     -38833.108      79824.173      14.558114     -38883.538      0.0051457575   0.0067858956   0.016969232  
    242000   383.46993      798.16726     -39084.84       247.78733     -38837.053      79766.996      14.568549     -38797.315      0.0049771343   0.0060169619   0.017544044  
    243000   389.97856     -901.52766     -39076.919      251.99302     -38824.926      79838.149      14.555565     -38869.85       0.0060054525   0.006208485    0.022244532  
    244000   382.67145      31.809874     -39073.73       247.27137     -38826.459      79815.84       14.559633     -38824.874      0.0062279372   0.0058053713   0.017344154  
    245000   389.25648      1851.1607     -39072.145      251.52643     -38820.619      79780.052      14.566165     -38728.441      0.0060275471   0.0049212172   0.018753467  
    246000   392.03566      1890.5771     -39080.369      253.32226     -38827.047      79733.716      14.57463      -38732.96       0.0053568087   0.0049255237   0.022772314  
    247000   390.29865      1292.0644     -39068.868      252.19985     -38816.668      79806.132      14.561405     -38752.309      0.0061644288   0.0061471135   0.020585401  
    248000   399.28453      262.71959     -39062.865      258.00627     -38804.859      79875.446      14.548768     -38791.761      0.0054664254   0.0063343557   0.021021583  
    249000   394.7242      -1090.801      -39068.971      255.05951     -38813.912      79878.063      14.548292     -38868.295      0.0055639581   0.0067423993   0.019532723  
    250000   401.58206     -272.72789     -39062.872      259.49087     -38803.381      79867.492      14.550217     -38816.976      0.0063578377   0.0067784875   0.019482881  
    251000   404.03741     -1544.6016     -39067.863      261.07745     -38806.785      79892.602      14.545644     -38883.807      0.0067802043   0.0064527884   0.016026051  
    252000   412.11191     -1631.0655     -39069.309      266.29496     -38803.014      79891.66       14.545816     -38884.346      0.0058502516   0.0062660668   0.016410161  
    253000   404.26045     -1660.2721     -39064.68       261.22157     -38803.459      79901.957      14.543941     -38886.258      0.0059052976   0.0076201903   0.017767748  
    254000   401.23115      364.56312     -39067.286      259.26412     -38808.022      79845.735      14.554182     -38789.854      0.0063628713   0.0072138802   0.015658518  
    255000   414.09095     -225.72335     -39060.975      267.57376     -38793.401      79870.98       14.549582     -38804.654      0.0060434685   0.006323302    0.016645702  
    256000   407.94771     -234.46381     -39064.251      263.60417     -38800.646      79867.136      14.550282     -38812.334      0.0057896786   0.0063506409   0.019578627  
    257000   414.5944      -805.85831     -39057.762      267.89907     -38789.863      79899.188      14.544445     -38830.051      0.0070776105   0.0069317532   0.019920736  
    258000   412.68442      1161.8515     -39059.161      266.6649      -38792.496      79855.729      14.552361     -38734.587      0.0073956502   0.006425067    0.016413199  
    259000   416.87071     -668.77581     -39059.825      269.36996     -38790.455      79909.277      14.542609     -38823.811      0.0066698713   0.0057785237   0.023262339  
    260000   416.08583      794.60323     -39050.282      268.86279     -38781.419      79911.874      14.542136     -38741.787      0.0065939036   0.0061033044   0.02449338   
    261000   422.21693      823.10969     -39055.882      272.82453     -38783.058      79886.65       14.546728     -38742.016      0.0072941654   0.0061092889   0.020532027  
    262000   424.63113     -361.72435     -39048.934      274.38452     -38774.549      79943.311      14.536418     -38792.598      0.0072577178   0.0066190759   0.023808861  
    263000   423.71545      946.38983     -39056.24       273.79283     -38782.447      79865.213      14.550633     -38735.271      0.0060903759   0.0055701974   0.023469044  
    264000   440.28907     -181.67336     -39050.837      284.50223     -38766.335      79932.471      14.538389     -38775.399      0.0072313299   0.0064742923   0.021828569  
    265000   427.94477     -1774.1693     -39050.501      276.5257      -38773.975      79979.877      14.529772     -38862.54       0.0078300446   0.0074225714   0.02205803   
    266000   432.89097      2932.5774     -39046.755      279.72179     -38767.033      79858.863      14.55179      -38620.862      0.0064796112   0.0064824654   0.019915869  
    267000   437.16384      1437.5922     -39044.756      282.4828      -38762.273      79912.611      14.542002     -38690.569      0.0065545001   0.0067600568   0.018699755  
    268000   428.8048       660.62987     -39045.665      277.08143     -38768.584      79932.699      14.538348     -38735.625      0.0073375705   0.0078963909   0.017208855  
    269000   435.05177     -160.09278     -39039.405      281.11804     -38758.287      79983.502      14.529113     -38766.279      0.007829096    0.0087879157   0.017808424  
    270000   444.01666      192.92661     -39047.321      286.9109      -38760.41       79926.416      14.539491     -38750.785      0.0065088715   0.0071392987   0.020655195  
    271000   439.93929     -2533.6573     -39040.166      284.27622     -38755.89       80038.737      14.519087     -38882.462      0.0071030982   0.0074238025   0.022417639  
    272000   444.62394     -368.65436     -39033.861      287.3033      -38746.557      79993.331      14.527328     -38764.963      0.007322397    0.0080325306   0.026578797  
    273000   447.42599     -688.28739     -39044.886      289.11391     -38755.772      79979.193      14.529896     -38790.131      0.0064915093   0.0080477983   0.026416578  
    274000   452.89912      1372.2389     -39041.626      292.65049     -38748.975      79928.24       14.539159     -38680.518      0.0067080491   0.0059516921   0.023404515  
    275000   454.69238      1834.534      -39033.869      293.80924     -38740.059      79941.397      14.536766     -38648.524      0.0074302852   0.0068082944   0.02434867   
    276000   448.6222       458.37387     -39040.525      289.88687     -38750.638      79962.856      14.532865     -38727.761      0.0074675273   0.0073291766   0.028630325  
    277000   457.74309     -497.90012     -39040.737      295.78052     -38744.956      79993.995      14.527208     -38769.816      0.0073536609   0.0063709664   0.024683693  
    278000   454.54075     -1758.2517     -39033.747      293.71126     -38740.036      80037.024      14.519398     -38827.869      0.0078464362   0.0065385216   0.028590087  
    279000   467.99792     -1253.0084     -39028.431      302.4069      -38726.024      80052.361      14.516616     -38788.63       0.0074572389   0.008423179    0.027890504  
    280000   459.10659     -2823.7886     -39028.751      296.66158     -38732.089      80075.86       14.512356     -38873.22       0.0069845366   0.008107561    0.02988326   
    281000   463.80238      526.36509     -39030.582      299.69586     -38730.887      79998.062      14.526469     -38704.605      0.0068623841   0.0070527788   0.025995547  
    282000   459.17938      1156.6383     -39022.222      296.70861     -38725.514      80010.87       14.524144     -38667.752      0.006984282    0.0077162223   0.028187928  
    283000   461.77629      288.88051     -39025.119      298.38666     -38726.732      80020.006      14.522485     -38712.304      0.007285009    0.0083627197   0.023528664  
    284000   469.66847     -2094.7154     -39028.669      303.48636     -38725.182      80073.068      14.512862     -38829.871      0.007615168    0.0087269055   0.023261962  
    285000   464.09726      130.38308     -39017.879      299.8864      -38717.993      80058.412      14.515519     -38711.478      0.0087559974   0.0072303333   0.024958956  
    286000   469.17967     -342.26894     -39020.941      303.17052     -38717.77       80057.824      14.515625     -38734.873      0.0084570371   0.0067934157   0.024619373  
    287000   467.66995     -2289.0108     -39021.463      302.19498     -38719.268      80099.344      14.508101     -38833.705      0.0083419497   0.0081278336   0.023781989  
    288000   479.02247     -711.11324     -39021.452      309.53065     -38711.921      80065.949      14.514152     -38747.458      0.0084157077   0.0079057733   0.023360111  
    289000   483.54545      380.72681     -39011.724      312.45327     -38699.271      80083.861      14.510906     -38680.24       0.0083450206   0.0079275632   0.024366875  
    290000   485.31932     -525.26165     -39020.681      313.5995      -38707.081      80065.7        14.514197     -38733.33       0.0081806473   0.007803149    0.019254338  
    291000   479.23874      1344.0305     -39019.163      309.6704      -38709.493      80019.211      14.52263      -38642.366      0.008228604    0.0074578776   0.021487483  
    292000   493.12468     -2092.2891     -39013.179      318.6431      -38694.535      80130.499      14.50246      -38799.178      0.0080174326   0.008317312    0.028592194  
    293000   478.4811       1040.6376     -39011.112      309.18083     -38701.931      80053.951      14.516328     -38649.935      0.0078255084   0.0074595979   0.022771445  
    294000   485.12424      1534.258      -39011.55       313.47344     -38698.076      80053.601      14.516391     -38621.416      0.0081417155   0.0071016403   0.027361098  
    295000   488.76065      2174.6038     -39010.149      315.82318     -38694.325      80038.493      14.519131     -38585.691      0.0071388237   0.0080197222   0.0292457    
    296000   482.99954     -1074.8511     -39007.762      312.10052     -38695.662      80129.585      14.502626     -38749.418      0.0070531114   0.0084071894   0.032274648  
    297000   498.02306     -144.32171     -39011.71       321.80829     -38689.901      80098.026      14.50834      -38697.116      0.0069722359   0.007770276    0.032943101  
    298000   497.90345     -347.56365     -39004.355      321.731       -38682.624      80135.18       14.501613     -38700.008      0.0075832114   0.0086498023   0.03375116   
    299000   500.19495      1100.026      -39007.366      323.2117      -38684.154      80072.175      14.513024     -38629.178      0.0075703454   0.0080899971   0.02594206   
    300000   492.18501     -2439.0399     -39007.948      318.03591     -38689.912      80176.259      14.494183     -38811.967      0.0077778845   0.0095074892   0.02669218   
    301000   503.03852     -655.18523     -38998.994      325.04914     -38673.944      80155.209      14.497989     -38706.723      0.0082636781   0.008661542    0.031497834  
    302000   497.53921      446.9925      -39005.608      321.49564     -38684.113      80095.193      14.508853     -38661.767      0.0069640071   0.0083883523   0.031877744  
    303000   509.05676      1054.8606     -38995.926      328.93795     -38666.988      80130.686      14.502426     -38614.231      0.0076639463   0.0098963788   0.025974325  
    304000   503.88272     -2418.9971     -39002.147      325.59464     -38676.553      80182.723      14.493015     -38797.614      0.0084841392   0.0091690441   0.028224886  
    305000   508.90208     -1163.0168     -38989.631      328.838       -38660.793      80192.653      14.49122      -38719.004      0.0086797153   0.0085493423   0.031146651  
    306000   509.98137     -1345.817      -38993.999      329.53541     -38664.464      80200.883      14.489733     -38731.832      0.0090385441   0.008134016    0.026998041  
    307000   521.99869     -287.6495      -38993.1        337.30066     -38655.799      80168.88       14.495517     -38670.192      0.008589014    0.0098207409   0.02652531   
    308000   511.01295     -3992.2949     -38992.126      330.20198     -38661.924      80273.962      14.476542     -38861.95       0.0077466631   0.010473233    0.039533453  
    309000   522.10499     -523.61705     -38993.495      337.36935     -38656.125      80180.416      14.493432     -38682.33       0.0077749519   0.0088629344   0.029564544  
    310000   517.70404      3608.1218     -38991.567      334.52558     -38657.041      80073.262      14.512827     -38476.715      0.0076555844   0.009410849    0.022025646  
    311000   518.85455      427.78724     -38987.13       335.26901     -38651.861      80166.017      14.496035     -38630.457      0.009130561    0.01006178     0.02757429   
    312000   531.58722      863.75359     -38985.228      343.49649     -38641.731      80167.649      14.49574      -38598.512      0.0090894292   0.0097241269   0.02062289   
    313000   522.78844     -409.67408     -38983.754      337.81097     -38645.943      80205.676      14.488867     -38666.451      0.0096205381   0.0087953509   0.025170369  
    314000   532.53863     -1371.2106     -38998.807      344.11127     -38654.696      80200.211      14.489854     -38723.334      0.010111135    0.0078688041   0.031008753  
    315000   534.152        2089.9438     -38987.298      345.15378     -38642.144      80139.914      14.500756     -38537.607      0.0088252816   0.008483107    0.031064019  
    316000   527.25873     -1345.9926     -38984.333      340.69955     -38643.633      80240.712      14.482541     -38711.044      0.0085500815   0.0089111155   0.032110897  
    317000   535.64059     -2286.6034     -38980.04       346.11566     -38633.924      80279.365      14.475568     -38748.498      0.0077454362   0.010270477    0.036038638  
    318000   547.70228     -775.87278     -38984.696      353.90959     -38630.786      80228.217      14.484796     -38669.638      0.0081573668   0.0099959358   0.036304974  
    319000   539.39671     -128.41029     -38976.519      348.54276     -38627.976      80217.178      14.48679      -38634.405      0.0081869115   0.010197122    0.031646075  
    320000   532.74043     -186.36127     -38971.164      344.24166     -38626.923      80257.01       14.4796       -38636.258      0.0084685212   0.0092708376   0.036494047  
    321000   533.22061     -1542.2936     -38980.625      344.55194     -38636.073      80250.775      14.480725     -38713.325      0.0081841459   0.0088967184   0.040202672  
    322000   545.44845     -2820.5723     -38973.918      352.45322     -38621.465      80318.672      14.468483     -38762.863      0.0088250719   0.0097249541   0.036394094  
    323000   542.26695      416.4706      -38971.64       350.39743     -38621.243      80235.367      14.483506     -38600.386      0.0080721945   0.0095559578   0.036295243  
    324000   547.63901     -1282.0492     -38965.753      353.8687      -38611.885      80289.107      14.473811     -38676.131      0.0084970042   0.0098487346   0.039425552  
    325000   535.51765      1520.321      -38968.238      346.03622     -38622.202      80209.841      14.488115     -38546.09       0.0085642923   0.0091949566   0.031363872  
    326000   548.44488     -1947.3361     -38964.143      354.38943     -38609.754      80327.061      14.466972     -38707.386      0.0093997507   0.0093932991   0.035488134  
    327000   563.34113     -270.4204      -38980.02       364.01496     -38616.005      80221.538      14.486002     -38629.545      0.0092534822   0.0092110816   0.029597405  
    328000   557.88013      1304.272      -38965.855      360.48622     -38605.369      80222.549      14.48582      -38540.063      0.0090307281   0.0094241449   0.027103841  
    329000   549.46859     -479.96496     -38967.507      355.05092     -38612.456      80275.372      14.476288     -38636.505      0.00996861     0.0093721661   0.028074289  
    330000   558.69611      725.56991     -38962.327      361.01348     -38601.314      80255.027      14.479957     -38564.969      0.010483679    0.008934347    0.032889528  
    331000   563.13498     -1012.4371     -38965.129      363.88176     -38601.248      80305.832      14.470797     -38651.994      0.0098569802   0.0095992878   0.029975722  
    332000   567.62086      1340.7218     -38964.624      366.7804      -38597.843      80246.067      14.481574     -38530.692      0.0095650035   0.0095182269   0.027697083  
    333000   568.66642      739.80858     -38959.959      367.45601     -38592.503      80279.975      14.475458     -38555.434      0.010083626    0.0094101657   0.030675881  
    334000   568.50734     -293.16052     -38964.8        367.35322     -38597.447      80287.353      14.474127     -38612.138      0.0094902683   0.010329986    0.024501265  
    335000   567.10719     -1890.6136     -38956.574      366.44848     -38590.125      80354.955      14.46195      -38684.946      0.0098346848   0.010255316    0.034175639  
    336000   574.83065      1097.8469     -38953.82       371.43916     -38582.381      80273.38       14.476647     -38527.376      0.0098604145   0.009389494    0.039046595  
    337000   564.76203      3081.6959     -38952.446      364.93311     -38587.513      80232.355      14.484049     -38433.19       0.0086149847   0.0095006509   0.030891145  
    338000   584.71887     -1233.3207     -38950.254      377.82865     -38572.425      80367.466      14.459699     -38634.291      0.010109886    0.0089390816   0.042224621  
    339000   572.76481      204.74582     -38949.681      370.10428     -38579.576      80332.214      14.466044     -38569.311      0.011824426    0.0096937004   0.037219909  
    340000   570.03119     -2125.9267     -38952.962      368.33789     -38584.624      80360.432      14.460965     -38691.255      0.010170672    0.011123096    0.031648734  
    341000   576.94405     -1300.8016     -38945.414      372.80478     -38572.609      80383.908      14.456741     -38637.872      0.010285029    0.010281305    0.035260526  
    342000   578.83575     -1880.3244     -38955.628      374.02714     -38581.601      80378.369      14.457738     -38675.933      0.010551992    0.010452517    0.038526178  
    343000   587.78086     -3080.2531     -38944.321      379.80722     -38564.514      80434.041      14.447731     -38719.152      0.011114243    0.012313726    0.030553038  
    344000   583.80355     -1919.2885     -38948.299      377.2372      -38571.062      80406.758      14.452633     -38667.383      0.010653741    0.011964341    0.028848991  
    345000   598.75827      65.30865      -38942.846      386.90051     -38555.945      80354.1        14.462104     -38552.67       0.011003918    0.010695794    0.03529701   
    346000   598.26583      216.13183     -38947.858      386.58231     -38561.275      80342.403      14.46421      -38550.437      0.0093815561   0.012427428    0.031641002  
    347000   600.91428      999.18401     -38942.722      388.29366     -38554.429      80332.22       14.466043     -38504.33       0.0088909251   0.012123371    0.036391277  
    348000   594.23765     -1936.3828     -38931.341      383.97941     -38547.361      80450.758      14.444729     -38644.594      0.0098886787   0.011695779    0.047835938  
    349000   603.17684      1151.1863     -38938.067      389.75566     -38548.311      80362.009      14.460681     -38490.57       0.011791806    0.0095413389   0.037777855  
    350000   590.26994     -1057.6609     -38944.642      381.41559     -38563.226      80380.394      14.457373     -38616.288      0.012702944    0.0088760706   0.033655044  
    351000   597.58842     -745.90146     -38935.439      386.14458     -38549.295      80394.036      14.45492      -38586.723      0.011263306    0.010769682    0.043014164  
    352000   611.72478     -2925.8736     -38937.377      395.2791      -38542.098      80451.523      14.444591     -38689.017      0.0096977531   0.012630651    0.038793584  
    353000   594.24547      437.16006     -38942.815      383.98447     -38558.831      80357.025      14.461578     -38536.905      0.0096003928   0.011829964    0.0306691    
    354000   610.42151      411.40874     -38928.432      394.43696     -38533.995      80391.847      14.455314     -38513.351      0.010652791    0.011020326    0.03623859   
    355000   606.99736      374.73603     -38935.052      392.22437     -38542.827      80385.365      14.456479     -38524.026      0.010034968    0.011143573    0.03943162   
    356000   615.70904      4136.2967     -38932.618      397.85361     -38534.764      80268.208      14.47758      -38327.538      0.0092821539   0.010463112    0.033857278  
    357000   625.91586      1318.4594     -38931.991      404.44897     -38527.542      80371.548      14.458965     -38461.403      0.010687812    0.010628361    0.034067922  
    358000   610.97235     -1474.631      -38934.75       394.7929      -38539.957      80444.039      14.445935     -38613.997      0.014508294    0.0098355769   0.033338807  
    359000   629.31906     -636.90674     -38930.831      406.64802     -38524.183      80431.621      14.448166     -38556.156      0.01185483     0.010922981    0.032130111  
    360000   619.3451       1722.2889     -38919.489      400.20313     -38519.285      80375.983      14.458167     -38432.884      0.01007181     0.0120206      0.03086899   
    361000   614.75694      1884.1645     -38922.308      397.23839     -38525.07       80397.276      14.454338     -38430.522      0.010466447    0.0098908869   0.05114544   
    362000   625.8666       292.84888     -38913.72       404.41713     -38509.302      80464.946      14.442182     -38494.595      0.011670257    0.010043714    0.046795724  
    363000   630.83653      1316.3614     -38924.835      407.62856     -38517.206      80379.647      14.457508     -38451.166      0.010457539    0.011120807    0.03648053   
    364000   631.11166     -2438.1366     -38929.253      407.80634     -38521.446      80503.625      14.435243     -38643.954      0.010699204    0.012780142    0.04176408   
    365000   627.77059     -1962.7166     -38918.741      405.64744     -38513.094      80489.543      14.437768     -38611.696      0.013135817    0.011632632    0.032180937  
    366000   629.91238      3059.2018     -38919.06       407.0314      -38512.029      80376.758      14.458028     -38358.557      0.010967577    0.010899475    0.033546959  
    367000   639.98482     -2268.7669     -38910.475      413.53993     -38496.936      80555.227      14.425996     -38611.006      0.01115054     0.012560369    0.051576032  
    368000   635.89646      2552.9817     -38919.556      410.89814     -38508.658      80385.871      14.456388     -38380.567      0.0099073299   0.010971713    0.045845523  
    369000   647.05788     -1134.5592     -38903.5        418.11034     -38485.39       80552.742      14.426441     -38542.432      0.012880249    0.011466537    0.035032866  
    370000   637.11007      342.84973     -38919.979      411.68234     -38508.296      80444.156      14.445914     -38491.082      0.011585234    0.011625958    0.040943546  
    371000   650.21049      784.03564     -38914.932      420.14746     -38494.784      80446.243      14.445539     -38455.417      0.011823128    0.011697429    0.035114209  
    372000   633.90057      1105.4858     -38913.45       409.60846     -38503.842      80445.274      14.445713     -38448.335      0.010744043    0.010638944    0.035015182  
    373000   643.70304      1525.0702     -38905.929      415.94253     -38489.986      80462.653      14.442593     -38413.396      0.011158181    0.010994511    0.050867839  
    374000   650.71619      1836.5328     -38910.992      420.47423     -38490.518      80448.565      14.445122     -38398.301      0.011359769    0.0092709029   0.048329963  
    375000   657.63491      132.15436     -38912.084      424.94491     -38487.139      80471.43       14.441018     -38480.502      0.010638789    0.011350962    0.03961933   
    376000   655.49541     -75.084737     -38903.565      423.56243     -38480.002      80517.796      14.432702     -38483.776      0.011407637    0.012683323    0.046765462  
    377000   664.37357     -2548.5293     -38896.909      429.29924     -38467.609      80605.517      14.416995     -38595.826      0.01282345     0.013322085    0.046523208  
    378000   658.5477      -1450.7733     -38902.477      425.53473     -38476.942      80558.018      14.425496     -38549.888      0.013279095    0.010968226    0.030151387  
    379000   661.9648      -1556.7347     -38893.802      427.74277     -38466.059      80577.086      14.422082     -38544.351      0.013434741    0.012203243    0.040486231  
    380000   668.89757     -293.06315     -38907.826      432.22252     -38475.603      80497.103      14.436412     -38490.327      0.011425493    0.012137457    0.048797249  
    381000   656.42762     -2039.331      -38898.778      424.1648      -38474.613      80583.539      14.420928     -38577.184      0.010156337    0.011682729    0.051650856  
    382000   667.84775     -1518.5456     -38897.367      431.54416     -38465.823      80587.33       14.420249     -38542.204      0.011381916    0.012462985    0.046440464  
    383000   659.39735      1283.6616     -38901.733      426.08375     -38475.649      80479.59       14.439554     -38411.169      0.012090429    0.013465244    0.039452152  
    384000   654.48651      2526.0719     -38891.829      422.91051     -38468.918      80475.391      14.440307     -38342.037      0.013231117    0.012105649    0.030998594  
    385000   671.2531       2800.487      -38885.117      433.7446      -38451.372      80517.893      14.432685     -38310.633      0.011777804    0.013038592    0.038050546  
    386000   670.67306     -2445.733      -38899.847      433.36979     -38466.477      80601.558      14.417704     -38589.516      0.011873896    0.01306577     0.046843884  
    387000   685.02176     -1196.9934     -38888.181      442.64152     -38445.54       80600.439      14.417904     -38505.757      0.012179774    0.014259807    0.042780941  
    388000   686.47028     -767.61564     -38890.017      443.57751     -38446.44       80583.667      14.420905     -38485.048      0.014483309    0.011561736    0.037049222  
    389000   665.23736      2177.2221     -38889.095      429.8574      -38459.238      80498.724      14.436122     -38349.847      0.012551237    0.011880401    0.042170261  
    390000   672.577        602.45455     -38879.074      434.60006     -38444.474      80580.539      14.421464     -38414.174      0.011017502    0.012003477    0.052006623  
    391000   668.79076     -1041.6529     -38877.265      432.1535      -38445.112      80634.947      14.411734     -38497.537      0.012727846    0.014765859    0.038240806  
    392000   680.009       -100.95839     -38882.062      439.40241     -38442.659      80584.577      14.420742     -38447.737      0.013651551    0.012839519    0.040421913  
    393000   677.16531      1116.3388     -38887.234      437.5649      -38449.669      80513.253      14.433517     -38393.57       0.012060674    0.011486127    0.043357156  
    394000   691.82985      502.12198     -38879.484      447.04071     -38432.443      80589.885      14.419792     -38407.186      0.012561758    0.011990711    0.04438958   
    395000   692.19388      2281.7944     -38879.641      447.27593     -38432.365      80535.873      14.429463     -38317.667      0.011145683    0.014564218    0.041263676  
    396000   701.00211      294.06467     -38863.127      452.96756     -38410.16       80627.592      14.413048     -38395.361      0.011013302    0.015111214    0.045729646  
    397000   689.1883      -1333.3768     -38877.422      445.33382     -38432.088      80643.363      14.41023      -38499.202      0.014612742    0.011276025    0.043414622  
    398000   702.45103     -707.89898     -38874.179      453.90381     -38420.275      80635.328      14.411666     -38455.902      0.014162656    0.012267959    0.044476802  
    399000   697.27989      1863.903      -38876.484      450.56237     -38425.921      80567.387      14.423818     -38332.193      0.011187657    0.014564251    0.043477237  
    400000   712.15015      1335.7819     -38877.435      460.17111     -38417.264      80571.65       14.423055     -38350.089      0.011760429    0.011497975    0.050148988  
    401000   682.63425     -1571.1287     -38876.602      441.09877     -38435.503      80637.508      14.411276     -38514.578      0.013148236    0.01247441     0.05150521   
    402000   701.70905     -291.28923     -38860.796      453.42437     -38407.371      80676.974      14.404226     -38422.039      0.014056577    0.012401082    0.054736387  
    403000   696.33799     -485.39378     -38866.788      449.95374     -38416.834      80634.579      14.411799     -38441.263      0.01230002     0.013668682    0.04190465   
    404000   715.84453      1155.3109     -38871.1        462.55831     -38408.542      80604.958      14.417095     -38350.419      0.012826539    0.013789928    0.041088916  
    405000   717.62098      2291.1624     -38870.316      463.7062      -38406.609      80588.91       14.419966     -38291.365      0.012039964    0.011974366    0.050422037  
    406000   697.97758      257.41307     -38857.946      451.01319     -38406.933      80656.887      14.407813     -38393.974      0.012916073    0.013782698    0.046943058  
    407000   724.4372      -2675.9277     -38863.535      468.11065     -38395.425      80741.183      14.392771     -38530.277      0.014491631    0.014510309    0.040666892  
    408000   722.87413      1284.7486     -38863.307      467.10064     -38396.206      80624.007      14.413689     -38331.556      0.013445431    0.012111968    0.052219703  
    409000   707.93687      1345.0814     -38856.774      457.4486      -38399.325      80630.465      14.412535     -38331.633      0.01403686     0.011098166    0.052481298  
    410000   718.43992     -1218.4098     -38855.54       464.23538     -38391.305      80727.739      14.395168     -38452.696      0.015161019    0.012401464    0.04653142   
    411000   728.01015     -1550.4212     -38862.71       470.41939     -38392.291      80716.822      14.397115     -38470.4        0.013220841    0.015221594    0.049649798  
    412000   727.25109     -977.91116     -38861.696      469.9289      -38391.767      80680.931      14.40352      -38441.012      0.012408169    0.01362019     0.051871762  
    413000   716.89898      1114.2282     -38860.64       463.23966     -38397.401      80631.186      14.412406     -38341.326      0.011726596    0.013045006    0.051017426  
    414000   737.99807     -689.65936     -38849.841      476.87329     -38372.968      80726.591      14.395373     -38407.717      0.018098359    0.012026513    0.049360251  
    415000   728.35989      2818.6242     -38860.145      470.64538     -38389.5        80581.921      14.421217     -38247.736      0.012428668    0.012721719    0.039478989  
    416000   740.49121      1571.7541     -38841.34       478.48429     -38362.855      80692.801      14.401401     -38283.695      0.013298042    0.015823488    0.041855851  
    417000   727.90038     -2644.2235     -38850.909      470.34846     -38380.56       80788.121      14.384409     -38513.892      0.015600557    0.012796809    0.063736262  
    418000   733.28542      99.99428      -38847.112      473.82811     -38373.284      80710.473      14.398248     -38368.247      0.01401661     0.014432096    0.0416297    
    419000   749.17124     -468.025       -38836.584      484.09308     -38352.491      80746.195      14.391878     -38376.079      0.012233667    0.016511066    0.046409615  
    420000   741.75064     -1659.7348     -38849.852      479.2981      -38370.554      80767.67       14.388051     -38454.223      0.014629469    0.013503694    0.056186811  
    421000   744.01268     -1955.5299     -38838.357      480.75976     -38357.597      80816.662      14.379329     -38456.237      0.014041901    0.013608076    0.058267384  
    422000   745.88458      928.92599     -38847.013      481.96933     -38365.044      80697.618      14.400541     -38318.256      0.012304762    0.014564629    0.049133944  
[...]
   7096000   306.46593      1610.4194     -39129.712      198.02954     -38931.682      79525.156      14.612852     -38851.748      0.0034243895   0.0041708512   0.014085216  
   7097000   297.06383     -334.79029     -39132.137      191.95417     -38940.183      79576.932      14.603345     -38956.811      0.0039114266   0.0044173963   0.013767206  
   7098000   298.55458     -2110.6169     -39127.344      192.91745     -38934.426      79643.87       14.591071     -39039.344      0.0049189186   0.0047077098   0.011645635  
   7099000   296.81703     -1068.9745     -39129.975      191.7947      -38938.18       79592.522      14.600484     -38991.284      0.0048024404   0.004091562    0.011334615  
   7100000   295.46931     -6.0652979     -39133.307      190.92384     -38942.383      79550.05       14.60828      -38942.684      0.0045147543   0.0035999207   0.013335638  
   7101000   308.33156     -151.4513      -39133.152      199.23506     -38933.917      79566.363      14.605285     -38941.438      0.0044495012   0.0039656657   0.011222681  
   7102000   306.36864     -642.87538     -39129.367      197.96667     -38931.4        79590.338      14.600885     -38963.336      0.0047629933   0.0042180149   0.011626874  
   7103000   294.63707     -1441.0903     -39131.346      190.38607     -38940.96       79600          14.599113     -39012.556      0.0042175654   0.0040776507   0.014791449  
   7104000   296.98738     -1524.9174     -39135.579      191.90477     -38943.674      79590.714      14.600816     -39019.427      0.0040545351   0.0039482542   0.014318866  
   7105000   303.13577     -112.06529     -39131.723      195.87769     -38935.845      79571.693      14.604306     -38941.411      0.0045891863   0.0042675157   0.0096935107 
   7106000   296.27966     -1012.2928     -39132.24       191.44746     -38940.792      79592.946      14.600407     -38991.081      0.0044344623   0.0046991232   0.0095533995 
   7107000   303.81677     -55.382734     -39133.072      196.31773     -38936.754      79564.981      14.605538     -38939.505      0.0041639837   0.0043038481   0.012732533  
   7108000   300.38572     -411.59895     -39136.711      194.10068     -38942.61       79554.7        14.607426     -38963.048      0.0038438802   0.0039949276   0.011363101  
   7109000   294.06935      1230.9451     -39131.619      190.01922     -38941.6        79535.128      14.61102      -38880.493      0.004124964    0.0039287498   0.013206901  
   7110000   297.87291      2442.4427     -39128.31       192.47698     -38935.833      79518.32       14.614109     -38814.611      0.0040976204   0.0039135      0.01432892   
   7111000   301.81014      590.16209     -39134.894      195.0211      -38939.873      79534.811      14.611079     -38910.576      0.0038011346   0.0043097889   0.0099581654 
   7112000   303.12663      327.62198     -39136.672      195.87178     -38940.8        79542.925      14.609588     -38924.535      0.0041476928   0.0045770097   0.0078113489 
   7113000   304.43154      627.62497     -39128.662      196.71498     -38931.947      79564.823      14.605567     -38900.779      0.0042501552   0.0045949247   0.010858599  
   7114000   297.44756      1507.4537     -39133.663      192.20213     -38941.461      79523.49       14.613159     -38866.639      0.0038261379   0.0039968378   0.013047266  
   7115000   307.0436      -1158.2607     -39131.743      198.40281     -38933.34       79595.41       14.599955     -38990.882      0.0042012113   0.0040645164   0.013599202  
   7116000   299.4974       1459.9976     -39130.413      193.52668     -38936.887      79534.443      14.611146     -38864.41       0.0042933927   0.0037912787   0.012700111  
   7117000   299.29441      667.51316     -39132.303      193.39551     -38938.907      79542.421      14.609681     -38905.768      0.0040787729   0.0045070078   0.010577185  
   7118000   300.3361       1516.3619     -39131.063      194.06862     -38936.995      79522.531      14.613335     -38861.731      0.0043704338   0.0043938158   0.0088210109 
   7119000   306.00324     -382.90755     -39136.682      197.73056     -38938.951      79550.34       14.608226     -38957.963      0.0042605462   0.003796698    0.012037292  
   7120000   301.03692     -973.85579     -39129.655      194.52147     -38935.134      79605.559      14.598093     -38983.521      0.0040106931   0.0039487931   0.017756372  
   7121000   297.04667     -1529.6838     -39131.023      191.94308     -38939.08       79617.709      14.595865     -39015.095      0.003961654    0.0041702609   0.016018389  
   7122000   296.11617     -761.3831      -39131.844      191.34182     -38940.502      79586.853      14.601524     -38978.323      0.0044762681   0.0043290081   0.01184565   
   7123000   298.21327      844.20844     -39129.699      192.6969      -38937.002      79544.308      14.609334     -38895.089      0.0040536447   0.0043313496   0.01085944   
   7124000   302.18632      2125.7371     -39129.326      195.26418     -38934.062      79523.454      14.613165     -38828.552      0.0042238833   0.0040886172   0.010301567  
   7125000   298.12368     -139.4963      -39132.271      192.63901     -38939.632      79567.239      14.605124     -38946.56       0.0046131207   0.0042179502   0.011681791  
   7126000   303.24298      1142.468      -39130.221      195.94696     -38934.274      79535.821      14.610893     -38877.559      0.0043155109   0.0041908461   0.011598382  
   7127000   298.59751      1248.4778     -39132.813      192.94519     -38939.868      79519.416      14.613907     -38877.904      0.0035552295   0.0041044154   0.014653116  
   7128000   297.12678     -1271.6872     -39133.868      191.99485     -38941.873      79595.354      14.599965     -39005.05       0.0037359176   0.0050483116   0.012045524  
   7129000   302.15175      1316.3675     -39130.817      195.24184     -38935.575      79540.305      14.610069     -38870.224      0.0043134422   0.0045517773   0.0092783398 
   7130000   297.33351      1694.6155     -39135.204      192.12843     -38943.076      79497.435      14.617948     -38858.992      0.004094737    0.0039490458   0.011256807  
   7131000   304.59171      1882.1323     -39133.993      196.81847     -38937.175      79513.716      14.614955     -38843.767      0.0039721655   0.0038505708   0.012571308  
   7132000   299.47064      2219.4593     -39133.722      193.50938     -38940.213      79508.463      14.615921     -38830.072      0.0040838304   0.0040757171   0.010891013  
   7133000   305.52015     -431.95361     -39128.907      197.4184      -38931.489      79585.399      14.601791     -38952.945      0.0049207621   0.0040400088   0.014045035  
   7134000   297.82085      1940.1006     -39129.431      192.44333     -38936.988      79516.745      14.614398     -38840.7        0.0041695476   0.0040648698   0.013043515  
   7135000   293.87804      2496.4822     -39134.272      189.8956      -38944.376      79484.845      14.620263     -38820.524      0.0033565161   0.0047172145   0.0099379457 
   7136000   299.58299     -1242.1254     -39132.514      193.58198     -38938.932      79599.687      14.59917      -39000.644      0.0043806755   0.0050963107   0.0091387521 
   7137000   294.17773     -1634.0896     -39131.209      190.08925     -38941.12       79602.156      14.598717     -39022.307      0.0047170494   0.0043036645   0.012423658  
   7138000   299.18825     -479.99473     -39130.64       193.32691     -38937.313      79578.317      14.603091     -38961.154      0.0042645158   0.004106116    0.014897071  
   7139000   302.61578      785.12513     -39134.728      195.54168     -38939.186      79532.036      14.611588     -38900.213      0.0038687098   0.0044038841   0.011328384  
   7140000   303.43375     -415.31969     -39131.127      196.07023     -38935.057      79566.247      14.605306     -38955.682      0.0038942272   0.0045540657   0.01263267   
   7141000   293.68604     -657.11474     -39133.493      189.77154     -38943.721      79583.609      14.60212      -38976.362      0.0042499472   0.0044836768   0.012915728  
   7142000   297.91257      1680.7958     -39131.07       192.5026      -38938.567      79515.501      14.614627     -38855.15       0.0043075961   0.004340047    0.010239466  
   7143000   300.64499      460.01595     -39134.238      194.26821     -38939.969      79553.659      14.607617     -38917.128      0.0041525378   0.004023388    0.012537725  
   7144000   300.25657      889.05621     -39131.298      194.01723     -38937.281      79527.716      14.612382     -38893.15       0.0042733964   0.0036801626   0.014985894  
   7145000   300.15991      1436.1165     -39132.175      193.95477     -38938.221      79526.704      14.612568     -38866.937      0.0042262719   0.0040092903   0.01327956   
   7146000   303.16964      393.27444     -39135.476      195.89957     -38939.577      79532.322      14.611536     -38920.054      0.0039619848   0.0047182818   0.010380727  
   7147000   305.91048     -1155.1055     -39129.28       197.67062     -38931.61       79598.129      14.599456     -38988.997      0.004029416    0.0046371538   0.013128827  
   7148000   297.73837      354.77778     -39132.354      192.39004     -38939.964      79537.609      14.610565     -38922.352      0.0042688686   0.0045717548   0.010306689  
   7149000   305.43018     -541.59603     -39131.425      197.36027     -38934.064      79584.633      14.601932     -38960.967      0.0051099894   0.0044581754   0.0081726316 
   7150000   297.70711     -544.93784     -39132.732      192.36984     -38940.362      79579.022      14.602961     -38967.429      0.0043261399   0.0041317819   0.012784256  
   7151000   305.76568     -224.64445     -39131.471      197.57706     -38933.893      79577.778      14.60319      -38945.051      0.0043833629   0.0041720513   0.013915933  
   7152000   301.69019      11.139348     -39134.271      194.94359     -38939.328      79556.448      14.607105     -38938.775      0.0044075746   0.0040427634   0.011434255  
   7153000   301.7604       1750.0628     -39139.535      194.98896     -38944.546      79473.035      14.622436     -38857.737      0.0039797177   0.0039067571   0.0089509213 
   7154000   304.19473      1637.1061     -39134.063      196.56196     -38937.501      79517.233      14.614309     -38856.251      0.0040177558   0.0042909294   0.011223133  
   7155000   295.18689      818.29275     -39133.9        190.74134     -38943.159      79524.249      14.613019     -38902.543      0.0042740814   0.003698567    0.013171379  
   7156000   297.93341      523.4878      -39131.804      192.51607     -38939.288      79546.166      14.608993     -38913.298      0.0045720844   0.0037883506   0.011868506  
   7157000   295.55361     -768.20327     -39133.129      190.97831     -38942.151      79573.458      14.603982     -38980.304      0.0047358102   0.0042419514   0.012229533  
   7158000   304.63129      1497.859      -39132.526      196.84405     -38935.682      79523.097      14.613231     -38861.337      0.0044985165   0.0042945513   0.0088950303 
   7159000   302.95197     -8.1177743     -39134.188      195.75892     -38938.429      79551.857      14.607948     -38938.832      0.0040064709   0.0044744857   0.0087115991 
   7160000   296.93631      1325.4971     -39130.427      191.87177     -38938.556      79540.292      14.610072     -38872.751      0.0040358      0.0041485199   0.011639717  
   7161000   302.33798      1829.9726     -39130.761      195.36218     -38935.399      79525.509      14.612788     -38844.566      0.0040525926   0.0039902186   0.013738897  
   7162000   300.53296     -1162.0928     -39132.072      194.19582     -38937.876      79590.599      14.600837     -38995.605      0.0044302653   0.0039629724   0.014306312  
   7163000   299.89097      873.0134      -39134.379      193.78099     -38940.598      79523.343      14.613186     -38897.266      0.0040788084   0.0041022305   0.0082481858 
   7164000   299.72623      960.1876      -39135.098      193.67454     -38941.423      79521.526      14.61352      -38893.766      0.0042502989   0.0041184764   0.0091386664 
   7165000   296.12909     -383.8918      -39130.513      191.35017     -38939.163      79566.035      14.605345     -38958.228      0.0045456516   0.0041132015   0.013662638  
   7166000   298.43679     -2545.198      -39133.296      192.84134     -38940.455      79622.087      14.595063     -39066.942      0.004259116    0.0039871478   0.017598703  
   7167000   300.54201     -2486.8609     -39131.123      194.20167     -38936.922      79626.929      14.594175     -39060.517      0.0043259663   0.0044426482   0.013607282  
   7168000   300.13521      839.76444     -39134.459      193.93881     -38940.52       79525.47       14.612795     -38898.837      0.0044041458   0.004131269    0.010190918  
   7169000   303.88745     -693.00291     -39130.13       196.3634      -38933.767      79598.821      14.599329     -38968.197      0.0053664437   0.0044513587   0.0094987999 
   7170000   300.69666      1699.1833     -39134.088      194.3016      -38939.786      79503.604      14.616814     -38855.469      0.0042561969   0.0038639366   0.009897408  
   7171000   301.16721      2858.3219     -39130.092      194.60566     -38935.487      79489.157      14.61947      -38793.676      0.004057816    0.0035861833   0.011896721  
   7172000   299.7881       614.37172     -39136.786      193.71451     -38943.072      79529.307      14.61209      -38912.576      0.0044119619   0.0039944949   0.012577611  
   7173000   299.42732      1536.2677     -39134.023      193.48139     -38940.542      79512.408      14.615195     -38864.3        0.0043538445   0.0043237089   0.010522413  
   7174000   304.79671     -1419.9773     -39132.255      196.95094     -38935.305      79607.062      14.597818     -39005.859      0.0046073817   0.0043376424   0.010028679  
   7175000   298.52483     -1659.9984     -39132.907      192.89823     -38940.009      79589.764      14.60099      -39022.471      0.0049755058   0.0043630828   0.010680817  
   7176000   304.509        861.90779     -39132.357      196.76503     -38935.592      79553.278      14.607687     -38892.795      0.0043864083   0.00446067     0.012094736  
   7177000   299.27191      853.48238     -39132.81       193.38097     -38939.429      79545.36       14.609141     -38897.055      0.0037374097   0.0041670212   0.015933944  
   7178000   301.47788      788.61309     -39129.759      194.8064      -38934.953      79554.851      14.607398     -38895.795      0.0039680534   0.0040445805   0.014521321  
   7179000   302.46368      1521.0985     -39135.095      195.4434      -38939.652      79511.615      14.615341     -38864.164      0.0044872424   0.0038477691   0.011290104  
   7180000   308.53098     -127.63704     -39130.802      199.36391     -38931.438      79584.293      14.601994     -38937.778      0.0048075134   0.0044027786   0.010310657  
   7181000   298.84586     -609.17271     -39132.569      193.10567     -38939.463      79576.215      14.603476     -38969.719      0.0043665275   0.0043699429   0.011761755  
   7182000   299.82701     -248.8218      -39130.586      193.73966     -38936.847      79577.345      14.603269     -38949.205      0.0041349824   0.004430299    0.012370176  
   7183000   301.09951      1843.2132     -39135.964      194.56191     -38941.402      79490.183      14.619282     -38849.953      0.0040247757   0.0040208756   0.011219858  
   7184000   301.08729     -1851.4699     -39134.035      194.55402     -38939.481      79600.688      14.598987     -39031.467      0.004505915    0.0039224809   0.015533445  
   7185000   295.41274      1709.8515     -39131.099      190.88729     -38940.212      79530.064      14.611951     -38855.337      0.0045475181   0.0038272301   0.010725084  
   7186000   301.05476      12.418165     -39131.306      194.53299     -38936.773      79575.104      14.60368      -38936.156      0.0043476777   0.0041467307   0.010885833  
   7187000   304.1549      -1435.9591     -39137.675      196.53622     -38941.139      79576.337      14.603454     -39012.459      0.0042617049   0.0041347585   0.01312394   
   7188000   300.43853      246.36773     -39137.391      194.13481     -38943.256      79531.13       14.611755     -38931.026      0.0037467929   0.0043095361   0.012032547  
   7189000   302.70991      274.82596     -39134.128      195.6025      -38938.525      79540.947      14.609951     -38924.881      0.0037394525   0.0044036746   0.012646774  
   7190000   304.68249     -96.460617     -39132.819      196.87713     -38935.942      79561.093      14.606252     -38940.732      0.0042097893   0.0043363427   0.01323013   
   7191000   301.4505       605.47748     -39133.118      194.78871     -38938.33       79550.222      14.608248     -38908.267      0.004367282    0.0041594102   0.010998602  
   7192000   295.2208      -2795.675      -39136.717      190.76326     -38945.954      79615.198      14.596326     -39084.876      0.00442094     0.0042112113   0.012413402  
   7193000   295.9304      -746.84952     -39127.185      191.22178     -38935.963      79610.992      14.597097     -38973.073      0.0044691187   0.0048107159   0.012326584  
   7194000   297.24117      455.76448     -39131.118      192.06876     -38939.05       79561.496      14.606178     -38916.417      0.003915015    0.004707011    0.012177117  
   7195000   299.84285     -1117.2594     -39132.134      193.74989     -38938.384      79602.499      14.598654     -38993.894      0.0043992209   0.0044657904   0.013100812  
   7196000   294.61536      818.93514     -39133.607      190.37204     -38943.235      79528.693      14.612203     -38902.585      0.0042133459   0.003864938    0.011692658  
   7197000   301.02016      559.76341     -39130.384      194.51063     -38935.873      79554.407      14.60748      -38908.079      0.0042784821   0.004154575    0.011841478  
   7198000   296.76567     -389.98486     -39136.018      191.76151     -38944.257      79546.53       14.608926     -38963.619      0.004416812    0.0044055919   0.0090544247 
   7199000   296.58995      1456.0527     -39129.759      191.64796     -38938.111      79539.987      14.610128     -38865.826      0.0044756075   0.0042994294   0.011065779  
   7200000   295.58191     -455.95876     -39130.216      190.99659     -38939.22       79587.572      14.601392     -38961.869      0.0040209653   0.0042381105   0.015875858  
Loop time of 487.212 on 40 procs for 1000000 steps with 5000 atoms

Performance: 177.336 ns/day, 0.135 hours/ns, 2052.494 timesteps/s, 10.262 Matom-step/s
92.8% CPU use with 40 MPI tasks x 1 OpenMP threads

MPI task timing breakdown:
Section |  min time  |  avg time  |  max time  |%varavg| %total
---------------------------------------------------------------
Pair    | 288.94     | 298.46     | 312.71     |  38.6 | 61.26
Neigh   | 0          | 0          | 0          |   0.0 |  0.00
Comm    | 112.68     | 125.28     | 135.69     |  59.7 | 25.71
Output  | 0.27771    | 0.3309     | 0.41638    |   5.8 |  0.07
Modify  | 46.363     | 51.11      | 54.027     |  28.8 | 10.49
Other   |            | 12.03      |            |       |  2.47

Nlocal:            125 ave         134 max         116 min
Histogram: 2 2 7 6 2 3 8 6 1 3
Nghost:           1142 ave        1151 max        1133 min
Histogram: 3 1 6 8 3 2 6 7 2 2
Neighs:        6998.05 ave        7608 max        6504 min
Histogram: 2 5 8 4 4 7 3 3 1 3

Total # of neighbors = 279922
Ave neighs/atom = 55.9844
Neighbor list builds = 0
Dangerous builds = 0
	unfix           ffinal


# ----- FINAL OUTPUT -----
	write_data      annealed_W-Mo.data
System init for write_data ...




Total wall time: 1:00:36
