

# Styles
	units        metal
	atom_style   atomic
	pair_style   eam/fs

# Neighbour list
	neighbor        2.0 bin
	neigh_modify    check yes


# Boundary conditions
	boundary p p p


# ----------------- Atom Definition Section -----------------

read_data "en_min_W-Mo.data"
Reading data file ...
  orthogonal box = (0.046127475 0.046127475 0.11531869) to (31.603873 31.603873 79.009681)
  2 by 4 by 5 MPI processor grid
  reading atom labelmap ...
  reading atoms ...
  5000 atoms
  reading velocities ...
  5000 velocities
  read_data CPU = 0.038 seconds

# ----------------- Settings Section -----------------

include "annealing.in.settings"
# ----- SETTINGS -----
# Forcefield
	pair_coeff * * W-Mo.eam.fs W Mo

# Collection of atoms
	group alloy type  1 2
5000 atoms in group alloy


# ----------------- Run Section -----------------

include "annealing.in.run"
# Thermo output
	thermo          1000
	thermo_style    custom step temp press pe ke etotal vol density
	thermo_modify   flush yes

# Dump configuration
	dump            d1 all custom 50000 annealed_system.dump id type x y z xu yu zu vx vy vz
	dump_modify     d1 element W Mo


# ----- INITIAL EQUILIBRATION AT Ti -----
	velocity        all create ${Ti} 872392 dist gaussian
	velocity        all create 300 872392 dist gaussian
	fix             feq all npt temp ${Ti} ${Ti} ${tdamp} iso ${press} ${press} ${pdamp}
	fix             feq all npt temp 300 ${Ti} ${tdamp} iso ${press} ${press} ${pdamp}
	fix             feq all npt temp 300 300 ${tdamp} iso ${press} ${press} ${pdamp}
	fix             feq all npt temp 300 300 0.1 iso ${press} ${press} ${pdamp}
	fix             feq all npt temp 300 300 0.1 iso 1 ${press} ${pdamp}
	fix             feq all npt temp 300 300 0.1 iso 1 1 ${pdamp}
	fix             feq all npt temp 300 300 0.1 iso 1 1 1
	run             200000    # 200 ps
Neighbor list info ...
  update: every = 1 steps, delay = 0 steps, check = yes
  max neighbors/atom: 2000, page size: 100000
  master list distance cutoff = 7.3
  ghost atom cutoff = 7.3
  binsize = 3.65, bins = 9 9 22
  1 neighbor lists, perpetual/occasional/extra = 1 0 0
  (1) pair eam/fs, perpetual
      attributes: half, newton on
      pair build: half/bin/atomonly/newton
      stencil: half/bin/3d
      bin: standard
Per MPI rank memory allocation (min/avg/max) = 3.332 | 3.335 | 3.34 Mbytes
   Step          Temp          Press          PotEng         KinEng         TotEng         Volume        Density    
         0   300            2635.34       -39329.129      193.85144     -39135.277      78570.207      14.790458    
      1000   312.26616      804.77991     -39125.83       201.77748     -38924.053      79563.077      14.605888    
      2000   295.64515      1312.4756     -39134.268      191.03746     -38943.231      79515.88       14.614557    
      3000   300.72769     -490.5344      -39131.136      194.32165     -38936.815      79579.766      14.602825    
      4000   300.67775      936.04927     -39133.568      194.28938     -38939.279      79533.423      14.611334    
      5000   295.09879      763.03877     -39131.768      190.68442     -38941.083      79533.584      14.611304    
      6000   302.7343      -227.06307     -39131.198      195.61826     -38935.58       79572.296      14.604196    
      7000   296.69069     -1252.6455     -39134.116      191.71306     -38942.403      79590.116      14.600926    
      8000   305.54073      1759.378      -39133.352      197.4317      -38935.92       79513.313      14.615029    
      9000   297.91858      312.41809     -39131.963      192.50649     -38939.457      79544.756      14.609252    
     10000   301.11635      2157.6069     -39130.754      194.5728      -38936.181      79508.732      14.615871    
     11000   302.84583      2470.9192     -39132.233      195.69033     -38936.543      79485.223      14.620194    
     12000   293.84332     -513.68185     -39132.88       189.87317     -38943.007      79569.761      14.604661    
     13000   296.50088     -790.14233     -39129.376      191.5904      -38937.785      79593.196      14.600361    
     14000   295.2786       54.627956     -39133.899      190.80061     -38943.098      79553.387      14.607667    
     15000   303.21156      2067.392      -39133.439      195.92666     -38937.512      79503.262      14.616877    
     16000   295.62929      348.38936     -39131.115      191.02721     -38940.088      79551.051      14.608096    
     17000   305.73048      1967.1544     -39132.81       197.55431     -38935.256      79508.445      14.615924    
     18000   300.71611     -437.40287     -39133.594      194.31417     -38939.28       79583.207      14.602193    
     19000   302.64758      642.44781     -39129.641      195.56223     -38934.078      79556.548      14.607086    
     20000   301.50361     -1256.4514     -39131.701      194.82303     -38936.878      79601.39       14.598858    
     21000   295.66595     -209.93065     -39133.055      191.0509      -38942.004      79568.881      14.604822    
     22000   303.172        355.81317     -39130.785      195.90109     -38934.884      79555.804      14.607223    
     23000   300.79191      857.47233     -39132.496      194.36315     -38938.133      79531.107      14.611759    
     24000   296.92964      2694.8686     -39134.367      191.86746     -38942.499      79492.858      14.61879     
     25000   298.07302      462.19692     -39130.883      192.60628     -38938.276      79552.89       14.607758    
     26000   296.05955      441.80375     -39131.647      191.30524     -38940.342      79561.426      14.606191    
     27000   305.36409      871.27011     -39128.851      197.31756     -38931.534      79560.123      14.60643     
     28000   299.10466     -709.40182     -39133.479      193.27289     -38940.206      79576.959      14.60334     
     29000   300.77545     -1671.1963     -39134.59       194.35251     -38940.238      79592.493      14.60049     
     30000   307.43249     -606.13261     -39136.209      198.6541      -38937.555      79572.061      14.604239    
     31000   299.81189     -1903.4082     -39134.148      193.72989     -38940.418      79599.088      14.59928     
     32000   297.55582      596.47084     -39130.982      192.27208     -38938.71       79554.772      14.607413    
     33000   295.43585     -538.19815     -39136.669      190.90221     -38945.767      79553.065      14.607726    
     34000   299.62283      380.37611     -39131.414      193.60772     -38937.806      79553.438      14.607657    
     35000   290.36695      1287.6725     -39135.44       187.62683     -38947.813      79515.865      14.61456     
     36000   301.29686     -1593.596      -39132.151      194.68944     -38937.461      79607.568      14.597725    
     37000   294.98126     -1373.2206     -39133.825      190.60847     -38943.217      79588.054      14.601304    
     38000   301.81134     -5160.9414     -39132.279      195.02188     -38937.257      79697.021      14.58134     
     39000   297.19247     -2462.0856     -39132.277      192.03729     -38940.24       79623.766      14.594755    
     40000   296.53086     -1134.8326     -39134.051      191.60978     -38942.441      79586.646      14.601562    
     41000   297.83165      516.69618     -39130.116      192.45031     -38937.665      79561.455      14.606186    
     42000   305.16081      2495.8215     -39135.15       197.18621     -38937.964      79464.586      14.623991    
     43000   305.60518     -595.87345     -39130.689      197.47334     -38933.215      79582.186      14.602381    
     44000   297.51035      183.48939     -39132.027      192.2427      -38939.785      79568.395      14.604912    
     45000   301.40422     -1629.0698     -39129.523      194.75881     -38934.765      79617.077      14.595981    
     46000   300.34196     -451.5885      -39130.281      194.0724      -38936.209      79584.471      14.601961    
     47000   294.63266     -44.562937     -39132.917      190.38322     -38942.533      79564.182      14.605685    
     48000   296.28444     -1304.9189     -39129.631      191.45055     -38938.181      79604.812      14.59823     
     49000   295.96829     -36.955783     -39133.545      191.24626     -38942.299      79559.155      14.606608    
     50000   300.47172     -539.46362     -39132.797      194.15625     -38938.641      79571.199      14.604397    
     51000   294.19301      2055.1146     -39133.575      190.09913     -38943.476      79496.304      14.618156    
     52000   303.10969     -781.57344     -39132.12       195.86084     -38936.259      79580.08       14.602767    
     53000   295.72832     -1000.4245     -39131.16       191.0912      -38940.069      79594.76       14.600074    
     54000   299.54028     -501.46996     -39130.65       193.55438     -38937.096      79583.053      14.602222    
     55000   302.65443     -2057.5138     -39134.125      195.56666     -38938.558      79602.36       14.59868     
     56000   301.50195      1761.7271     -39130.491      194.82196     -38935.669      79524.071      14.613052    
     57000   295.87571      1081.5063     -39133.764      191.18644     -38942.578      79512.37       14.615202    
     58000   299.37424      1964.8286     -39128.598      193.44709     -38935.151      79515.07       14.614706    
     59000   298.27154     -820.98695     -39134.273      192.73456     -38941.538      79589.414      14.601054    
     60000   302.83075     -1041.373      -39134.313      195.68059     -38938.632      79587.983      14.601317    
     61000   302.76352      1024.9884     -39132.932      195.63715     -38937.295      79534.443      14.611146    
     62000   301.46041      263.87088     -39135.824      194.79511     -38941.029      79543.968      14.609396    
     63000   304.01482      1221.6773     -39130.753      196.4457      -38934.307      79527.415      14.612437    
     64000   301.35264      1755.4658     -39133.905      194.72548     -38939.18       79508.317      14.615947    
     65000   305.83279      547.39934     -39133.745      197.62042     -38936.125      79543.524      14.609478    
     66000   295.90045      2729.6245     -39132.47       191.20243     -38941.267      79483.657      14.620482    
     67000   298.09663      1148.7453     -39129.191      192.62154     -38936.57       79555.245      14.607326    
     68000   298.9783       177.61095     -39133.401      193.19125     -38940.209      79551.878      14.607944    
     69000   296.13271      400.06697     -39132.44       191.35251     -38941.087      79540.135      14.610101    
     70000   303.94299     -512.76536     -39129.972      196.39929     -38933.573      79592.692      14.600453    
     71000   299.2026      -920.06602     -39131.395      193.33618     -38938.059      79583.469      14.602145    
     72000   297.98575      812.88253     -39132.189      192.54989     -38939.639      79534.681      14.611102    
     73000   301.27562      1926.0572     -39128.763      194.67571     -38934.087      79534.079      14.611213    
     74000   299.07367      1745.6083     -39134.597      193.25287     -38941.344      79491.627      14.619016    
     75000   299.69346      1034.8003     -39128.789      193.65336     -38935.136      79549.428      14.608394    
     76000   297.30818     -1685.3456     -39132.051      192.11206     -38939.939      79596.931      14.599676    
     77000   301.97087     -474.92613     -39132.797      195.12496     -38937.672      79578.911      14.602982    
     78000   294.49031      179.42633     -39133.689      190.29124     -38943.398      79536.184      14.610826    
     79000   298.42184     -148.31863     -39132.299      192.83168     -38939.468      79571.806      14.604286    
     80000   298.70344     -589.70128     -39132.071      193.01364     -38939.057      79573.887      14.603904    
     81000   296.00127     -487.14177     -39134.4        191.26758     -38943.133      79563.174      14.60587     
     82000   300.79028      1199.345      -39134.962      194.3621      -38940.599      79522.98       14.613252    
     83000   301.7824       988.94254     -39133.014      195.00318     -38938.011      79530.059      14.611952    
     84000   303.10635     -981.17989     -39134.954      195.85867     -38939.096      79570.843      14.604462    
     85000   306.65782     -1439.5684     -39133.36       198.15354     -38935.207      79603.901      14.598397    
     86000   298.51115      18.741801     -39132.019      192.88939     -38939.13       79551.966      14.607928    
     87000   301.93967     -702.95349     -39132.319      195.1048      -38937.215      79590.575      14.600842    
     88000   301.51731     -1062.9682     -39137.539      194.83188     -38942.707      79569.862      14.604642    
     89000   302.039       -107.57281     -39129.821      195.16898     -38934.652      79579.97       14.602787    
     90000   305.82427      406.75222     -39133.574      197.61491     -38935.96       79556.117      14.607166    
     91000   296.35775      173.99254     -39131.04       191.49792     -38939.542      79569.994      14.604618    
     92000   301.90883      1291.2834     -39127.973      195.08487     -38932.888      79538.811      14.610344    
     93000   305.3225      -646.7071      -39134.296      197.29069     -38937.005      79582.196      14.602379    
     94000   302.12946     -619.19186     -39133.072      195.22743     -38937.844      79569.418      14.604724    
     95000   304.5883       1388.8688     -39135.32       196.81627     -38938.503      79524.279      14.613014    
     96000   302.97922      2043.2113     -39137.195      195.77652     -38941.419      79482.762      14.620647    
     97000   304.19742      2217.9891     -39133.175      196.56369     -38936.611      79501.561      14.617189    
     98000   302.69651     -1387.4159     -39129.04       195.59385     -38933.446      79606.518      14.597917    
     99000   298.73326      2585.5745     -39133.87       193.03291     -38940.837      79481.855      14.620813    
    100000   303.58307     -1235.8496     -39126.806      196.16672     -38930.64       79611.175      14.597064    
    101000   300.47166      989.99037     -39137.213      194.15621     -38943.057      79519.305      14.613928    
    102000   304.34775      303.08392     -39132.37       196.66083     -38935.709      79557.768      14.606862    
    103000   297.03459      871.45268     -39130.602      191.93528     -38938.667      79545.353      14.609142    
    104000   305.49275      816.96964     -39134.972      197.4007      -38937.572      79536.634      14.610744    
    105000   296.33817      1930.724      -39132.72       191.48527     -38941.235      79504.465      14.616655    
    106000   305.94493     -308.23323     -39132.576      197.69289     -38934.884      79572.561      14.604147    
    107000   304.76753      1238.3197     -39134.931      196.93208     -38937.999      79518.465      14.614082    
    108000   293.35632      277.20085     -39134.813      189.55848     -38945.254      79541.753      14.609803    
    109000   298.53599      913.36901     -39129.73       192.90544     -38936.824      79536.699      14.610732    
    110000   298.57151     -11.639037     -39133.879      192.92839     -38940.951      79547.061      14.608829    
    111000   298.77106     -1968.6561     -39131.58       193.05733     -38938.523      79619.361      14.595563    
    112000   299.08015     -1653.3582     -39134.215      193.25706     -38940.958      79593.672      14.600273    
    113000   305.893       -547.69745     -39131.349      197.65933     -38933.689      79578.698      14.603021    
    114000   296.34972     -1723.9877     -39130.312      191.49273     -38938.819      79613.179      14.596696    
    115000   296.34429      107.82525     -39134.618      191.48923     -38943.129      79540.866      14.609966    
    116000   302.64693      812.14896     -39131.869      195.56181     -38936.307      79540.664      14.610004    
    117000   298.09147     -1949.1457     -39132.534      192.6182      -38939.916      79612.059      14.596901    
    118000   310.56884      1838.144      -39132.574      200.68072     -38931.894      79513.895      14.614922    
    119000   299.12735      1405.7643     -39133.842      193.28756     -38940.554      79512.257      14.615223    
    120000   300.86694     -122.9099      -39134.048      194.41163     -38939.636      79554.447      14.607472    
    121000   298.71247     -464.60839     -39132.462      193.01948     -38939.442      79574.939      14.603711    
    122000   293.93609     -1617.8533     -39132.881      189.93311     -38942.948      79596.075      14.599833    
    123000   300.51945      1264.7308     -39130.084      194.18709     -38935.897      79538.452      14.61041     
    124000   296.67075      1177.8849     -39132.035      191.70017     -38940.335      79540.139      14.6101      
    125000   293.41004      1080.5739     -39132.292      189.5932      -38942.698      79527.472      14.612427    
    126000   303.9553       911.94593     -39133.559      196.40724     -38937.152      79535.989      14.610862    
    127000   297.21719     -714.71422     -39136.573      192.05327     -38944.52       79564.152      14.605691    
    128000   302.14658     -279.61731     -39133.482      195.2385      -38938.244      79576.156      14.603487    
    129000   304.65229      1241.0975     -39130.882      196.85762     -38934.025      79543.897      14.60941     
    130000   297.54679     -834.04985     -39132.891      192.26624     -38940.625      79590.457      14.600863    
    131000   306.23731      1700.0354     -39132.116      197.88181     -38934.235      79530.022      14.611958    
    132000   298.50998      1011.4909     -39133.409      192.88863     -38940.52       79530.021      14.611959    
    133000   309.90619      2195.8285     -39131.796      200.25254     -38931.543      79512.42       14.615193    
    134000   302.17141      1309.026      -39135.085      195.25454     -38939.83       79512.256      14.615223    
    135000   298.0653      -413.11321     -39131.955      192.60129     -38939.353      79578.936      14.602977    
    136000   299.74         830.66022     -39135.399      193.68343     -38941.715      79529.02       14.612143    
    137000   298.74814      2805.6243     -39133.344      193.04252     -38940.302      79484.034      14.620413    
    138000   304.7597       132.7507      -39131.718      196.92702     -38934.791      79569.262      14.604753    
    139000   300.16032     -201.04132     -39135.875      193.95503     -38941.92       79551.359      14.608039    
    140000   302.8012       1032.7372     -39130.782      195.66149     -38935.12       79537.456      14.610593    
    141000   297.11002     -838.84283     -39133.296      191.98402     -38941.312      79585.651      14.601745    
    142000   300.10393     -2792.1207     -39131.921      193.91859     -38938.003      79640.407      14.591706    
    143000   303.31142      357.4782      -39134.204      195.99119     -38938.212      79550.876      14.608128    
    144000   294.27001     -2661.4348     -39134.194      190.14888     -38944.045      79619.523      14.595533    
    145000   299.46093      129.36574     -39132.398      193.50311     -38938.895      79567.517      14.605073    
    146000   298.24706     -917.21077     -39133.971      192.71874     -38941.252      79586.883      14.601519    
    147000   303.30337      715.82928     -39133.709      195.98599     -38937.723      79540.08       14.610111    
    148000   304.35569      362.48115     -39132.071      196.66596     -38935.405      79542.244      14.609713    
    149000   291.36931      453.19344     -39133.534      188.27453     -38945.26       79546.205      14.608986    
    150000   298.19625     -288.91211     -39129.087      192.68591     -38936.401      79592.053      14.60057     
    151000   301.08858      3021.2877     -39133.426      194.55485     -38938.871      79487.567      14.619763    
    152000   298.5977      -103.32686     -39130.642      192.94531     -38937.697      79573.513      14.603972    
    153000   301.09228      1163.866      -39134.076      194.55724     -38939.519      79529.956      14.611971    
    154000   305.9231       660.42647     -39131.22       197.67878     -38933.541      79543.324      14.609515    
    155000   297.59412      1301.5926     -39130.626      192.29683     -38938.329      79533.611      14.611299    
    156000   299.36979      555.39569     -39139.666      193.44421     -38946.222      79513.044      14.615078    
    157000   307.76503      2725.5616     -39136.404      198.86898     -38937.535      79481          14.620971    
    158000   300.79575     -866.28406     -39128.318      194.36563     -38933.953      79609.859      14.597305    
    159000   299.27018     -1072.9851     -39134.399      193.37985     -38941.019      79579.485      14.602876    
    160000   301.28233      950.86823     -39133.933      194.68004     -38939.252      79523.924      14.613079    
    161000   300.73364      2085.0769     -39134.927      194.3255      -38940.602      79486.176      14.620019    
    162000   296.86954     -651.10833     -39129.379      191.82862     -38937.55       79602.586      14.598638    
    163000   300.26746     -932.15074     -39127.936      194.02427     -38933.911      79611.54       14.596997    
    164000   297.35591     -2461.3161     -39132.486      192.14291     -38940.343      79628.025      14.593975    
    165000   307.42954      272.71366     -39133.208      198.65219     -38934.556      79555.164      14.607341    
    166000   301.27334      2272.2694     -39134.519      194.67424     -38939.845      79490.86       14.619157    
    167000   303.43972     -2270.6186     -39131.004      196.07409     -38934.93       79631.24       14.593385    
    168000   298.51677      1521.353      -39135.386      192.89302     -38942.493      79507.393      14.616117    
    169000   305.97686     -466.21326     -39132.242      197.71352     -38934.529      79572.154      14.604222    
    170000   301.97118      1048.173      -39135.803      195.12516     -38940.678      79531.071      14.611766    
    171000   303.69551     -512.59        -39130.278      196.23937     -38934.038      79587.184      14.601464    
    172000   302.60352     -323.26806     -39134.902      195.53376     -38939.368      79565.893      14.605371    
    173000   298.95349     -274.24709     -39131.289      193.17522     -38938.114      79563.479      14.605814    
    174000   300.5169      -530.57441     -39135.482      194.18545     -38941.296      79555.356      14.607305    
    175000   302.45002     -1328.7735     -39129.59       195.43457     -38934.155      79613.466      14.596643    
    176000   302.26311     -924.8729      -39129.964      195.3138      -38934.65       79598.869      14.59932     
    177000   298.15999     -957.81252     -39131.831      192.66248     -38939.168      79580.051      14.602772    
    178000   296.46236     -646.31136     -39130.379      191.56552     -38938.814      79588.919      14.601145    
    179000   296.63624      300.92454     -39129.906      191.67787     -38938.228      79569.387      14.604729    
    180000   293.95636      839.64749     -39132.694      189.94621     -38942.747      79546.587      14.608916    
    181000   299.87839     -433.08759     -39129.622      193.77286     -38935.849      79574.616      14.60377     
    182000   298.12866     -427.0674      -39132.254      192.64224     -38939.612      79580.304      14.602726    
    183000   295.961       -182.60074     -39131.485      191.24155     -38940.243      79570.889      14.604454    
    184000   295.5863       281.99582     -39130.273      190.99943     -38939.274      79552.861      14.607764    
    185000   303.63495     -578.47762     -39132.95       196.20024     -38936.75       79571.134      14.604409    
    186000   299.45943     -3682.3464     -39134.686      193.50214     -38941.184      79653.072      14.589385    
    187000   301.85319     -0.86911361    -39132.366      195.04892     -38937.317      79559.32       14.606577    
    188000   295.1286       760.35747     -39131.55       190.70368     -38940.846      79553.633      14.607622    
    189000   301.76896      1956.5103     -39133.247      194.99449     -38938.253      79519.387      14.613913    
    190000   307.93045     -0.63679038    -39135.723      198.97587     -38936.747      79540.865      14.609966    
    191000   293.8635       707.23506     -39134.181      189.88621     -38944.294      79541.078      14.609927    
    192000   298.08876     -306.22409     -39131.877      192.61645     -38939.26       79568.956      14.604809    
    193000   299.00643      1358.7861     -39130.683      193.20942     -38937.473      79527.073      14.6125      
    194000   299.05745      948.92969     -39130.839      193.24239     -38937.596      79540.077      14.610111    
    195000   297.38645     -137.11959     -39127.798      192.16264     -38935.635      79576.274      14.603465    
    196000   301.88774      350.93546     -39129.639      195.07124     -38934.568      79565.303      14.605479    
    197000   299.55303     -325.29994     -39133.258      193.56262     -38939.695      79561.621      14.606155    
    198000   300.14439      84.328476     -39127.883      193.94474     -38933.938      79585.456      14.601781    
    199000   300.67778     -384.98709     -39133.857      194.2894      -38939.567      79561.309      14.606212    
    200000   307.38512      1324.9027     -39133.434      198.62349     -38934.81       79531.702      14.61165     
Loop time of 105.299 on 40 procs for 200000 steps with 5000 atoms

Performance: 164.104 ns/day, 0.146 hours/ns, 1899.347 timesteps/s, 9.497 Matom-step/s
92.9% CPU use with 40 MPI tasks x 1 OpenMP threads

MPI task timing breakdown:
Section |  min time  |  avg time  |  max time  |%varavg| %total
---------------------------------------------------------------
Pair    | 59.79      | 62.263     | 65.374     |  16.7 | 59.13
Neigh   | 0          | 0          | 0          |   0.0 |  0.00
Comm    | 25.782     | 28.707     | 30.98      |  24.3 | 27.26
Output  | 0.013719   | 0.016641   | 0.058903   |   5.3 |  0.02
Modify  | 10.928     | 11.639     | 12.387     |   9.5 | 11.05
Other   |            | 2.674      |            |       |  2.54

Nlocal:            125 ave         136 max         113 min
Histogram: 1 3 5 3 8 4 7 2 3 4
Nghost:           1142 ave        1154 max        1131 min
Histogram: 4 3 2 7 4 8 3 5 3 1
Neighs:           7000 ave        7628 max        6403 min
Histogram: 3 4 2 6 5 9 4 0 4 3

Total # of neighbors = 280000
Ave neighs/atom = 56
Neighbor list builds = 0
Dangerous builds = 0
	unfix           feq


# ----- HEATING FROM Ti TO Thigh -----
	fix             fheat all npt temp ${Ti} ${Thigh} ${tdamp} iso ${press} ${press} ${pdamp}
	fix             fheat all npt temp 300 ${Thigh} ${tdamp} iso ${press} ${press} ${pdamp}
	fix             fheat all npt temp 300 3300 ${tdamp} iso ${press} ${press} ${pdamp}
	fix             fheat all npt temp 300 3300 0.1 iso ${press} ${press} ${pdamp}
	fix             fheat all npt temp 300 3300 0.1 iso 1 ${press} ${pdamp}
	fix             fheat all npt temp 300 3300 0.1 iso 1 1 ${pdamp}
	fix             fheat all npt temp 300 3300 0.1 iso 1 1 1
	run             1000000   # 1 ns
Per MPI rank memory allocation (min/avg/max) = 4.593 | 4.597 | 4.602 Mbytes
   Step          Temp          Press          PotEng         KinEng         TotEng         Volume        Density    
    200000   307.38512      1324.9027     -39133.434      198.62349     -38934.81       79531.702      14.61165     
    201000   301.57043     -1925.6857     -39135.097      194.86621     -38940.231      79604.509      14.598286    
    202000   304.36582     -749.16779     -39128.104      196.67251     -38931.432      79597.663      14.599541    
    203000   308.96556      248.33597     -39124.444      199.64473     -38924.799      79590.83       14.600795    
    204000   307.66372     -1312.0678     -39123.532      198.80352     -38924.728      79631.1        14.593411    
    205000   309.64395      546.86963     -39125.791      200.08308     -38925.708      79575.534      14.603601    
    206000   314.44133      1124.874      -39122.05       203.18302     -38918.867      79576.703      14.603387    
    207000   316.65103      1277.3144     -39115.983      204.61086     -38911.372      79599.275      14.599246    
    208000   323.44913     -1242.1374     -39117.423      209.0036      -38908.42       79672.682      14.585795    
    209000   328.13305      1416.2711     -39110.39       212.03021     -38898.36       79633.015      14.59306     
    210000   326.21896      910.74986     -39117.188      210.79338     -38906.395      79614.691      14.596419    
    211000   332.84865      800.66406     -39109.55       215.0773      -38894.473      79650.218      14.589908    
    212000   326.82063     -298.58888     -39110.645      211.18217     -38899.462      79661.793      14.587788    
    213000   340.21682      531.01809     -39107.543      219.8384      -38887.704      79667.145      14.586808    
    214000   339.28935     -90.910119     -39102.787      219.2391      -38883.548      79688.897      14.582827    
    215000   332.00459      1267.7817     -39100.962      214.53189     -38886.43       79672.799      14.585773    
    216000   353.16018     -1167.6883     -39102.128      228.20203     -38873.926      79740.602      14.573371    
    217000   358.34957     -3028.1204     -39103.538      231.55527     -38871.983      79776.894      14.566741    
    218000   356.86236     -1810.4027     -39095.086      230.59427     -38864.492      79786.556      14.564977    
    219000   350.48896      2031.8367     -39092.672      226.47596     -38866.196      79690.818      14.582475    
    220000   362.81076     -955.65145     -39099.555      234.43796     -38865.117      79734.988      14.574397    
    221000   355.01072      229.93138     -39086.158      229.39779     -38856.76       79755.215      14.570701    
    222000   362.46512      677.47967     -39090.123      234.21462     -38855.909      79735.32       14.574336    
    223000   378.13478     -796.8496      -39086.055      244.3399      -38841.715      79786.204      14.565041    
    224000   364.08716     -1894.4373     -39086.198      235.26274     -38850.935      79820.848      14.55872     
    225000   381.99914     -316.7389      -39086.123      246.83694     -38839.286      79781.374      14.565923    
    226000   379.01067      2404.5516     -39084.371      244.90588     -38839.465      79720.645      14.577019    
    227000   379.48547      552.23813     -39079.367      245.21269     -38834.155      79777.513      14.566628    
    228000   378.8578      -351.43688     -39078.618      244.8071      -38833.811      79829.59       14.557126    
    229000   387.30668     -1107.9215     -39077.95       250.26653     -38827.683      79830.865      14.556893    
    230000   386.24209     -1598.8487     -39074.998      249.57862     -38825.419      79863.009      14.551034    
    231000   389.97262     -96.321988     -39073.288      251.98918     -38821.298      79830.151      14.557023    
    232000   393.69725     -634.32693     -39065.941      254.39593     -38811.545      79882.836      14.547423    
    233000   403.21519     -1984.6129     -39070.881      260.54615     -38810.335      79899.075      14.544466    
    234000   402.26033      310.01832     -39067.275      259.92915     -38807.345      79843.611      14.554569    
    235000   407.41652      242.50593     -39064.761      263.26093     -38801.5        79856.298      14.552257    
    236000   401.71149      1778.5335     -39066.851      259.5745      -38807.276      79794.162      14.563589    
    237000   409.16259     -744.08601     -39058.343      264.38919     -38793.953      79924.867      14.539772    
    238000   422.4331      -17.181418     -39057.183      272.96421     -38784.219      79903.817      14.543603    
    239000   419.83101     -853.43513     -39059.143      271.28282     -38787.861      79908.185      14.542808    
    240000   421.38347     -4559.573      -39057.02       272.28597     -38784.734      80039.142      14.519013    
    241000   423.61213     -510.27348     -39051.166      273.72607     -38777.44       79930.704      14.538711    
    242000   425.70301      477.98392     -39056.077      275.07714     -38781          79876.688      14.548542    
    243000   427.75355     -767.13673     -39053.928      276.40214     -38777.526      79922.849      14.540139    
    244000   436.28884     -1206.3358     -39047.704      281.9174      -38765.786      79972.122      14.531181    
    245000   427.94166     -1112.9327     -39048.746      276.52369     -38772.223      79956.542      14.534012    
    246000   433.82207      1360.4593     -39047.566      280.32344     -38767.243      79893.964      14.545396    
    247000   439.32664      465.85186     -39044.656      283.88034     -38760.776      79947.901      14.535583    
    248000   455.21849      634.25425     -39035.35       294.1492      -38741.201      79967.625      14.531998    
    249000   447.48246      2763.2561     -39039.678      289.1504      -38750.528      79902.798      14.543788    
    250000   442.90924      2782.816      -39034.101      286.19531     -38747.905      79904.44       14.543489    
    251000   456.03279     -1604.8253     -39034.494      294.67538     -38739.818      80053.278      14.51645     
    252000   453.1155      -1520.7006     -39037.061      292.79031     -38744.271      80030.613      14.520561    
    253000   463.41014      2509.7334     -39031.589      299.44241     -38732.146      79948.309      14.535509    
    254000   464.75832      564.6564      -39032.069      300.31356     -38731.755      79990.344      14.527871    
    255000   462.72504      2504.1726     -39022.737      298.99972     -38723.737      79980.678      14.529626    
    256000   466.75657      152.94397     -39026.499      301.60477     -38724.895      80034.58       14.519841    
    257000   464.88906     -2739.9512     -39023.636      300.39805     -38723.238      80108.307      14.506478    
    258000   469.2065       2760.0644     -39023.559      303.18785     -38720.372      79976.807      14.53033     
    259000   478.93323      1193.7826     -39023.758      309.47298     -38714.285      80004.343      14.525329    
    260000   480.47299     -992.23034     -39013.108      310.46794     -38702.64       80093.929      14.509082    
    261000   477.59929      662.35255     -39016.244      308.61103     -38707.633      80040.272      14.518808    
    262000   481.59752      833.99399     -39011.156      311.19457     -38699.962      80066.736      14.51401     
    263000   488.74992     -2588.2773     -39016.521      315.81625     -38700.705      80148.225      14.499253    
    264000   489.48568     -2351.6589     -39009.56       316.29168     -38693.269      80164.84       14.496248    
    265000   486.67787      2632.1158     -39002.542      314.47735     -38688.064      80035.264      14.519717    
    266000   502.35556      425.90009     -38999.362      324.60783     -38674.754      80121.93       14.504011    
    267000   500.06737     -183.85208     -39004.474      323.12927     -38681.345      80130.227      14.502509    
    268000   502.83086      1251.4346     -38996.595      324.91496     -38671.68       80121.572      14.504076    
    269000   499.58157      1232.7846     -38999.9        322.81535     -38677.085      80092.983      14.509253    
    270000   505.91275     -1364.7771     -38999.778      326.90638     -38672.871      80178.097      14.493851    
    271000   514.38876     -2226.5014     -38995.215      332.38334     -38662.832      80213.374      14.487476    
    272000   513.32366     -796.75006     -38998.516      331.6951      -38666.821      80163.902      14.496417    
    273000   523.7468      -2614.7499     -38993.98       338.43023     -38655.549      80229.779      14.484514    
    274000   523.97594     -1746.7851     -38993.604      338.5783      -38655.026      80218.848      14.486488    
    275000   519.26355     -723.36932     -38983.495      335.53329     -38647.961      80232.476      14.484027    
    276000   526.48973     -872.99241     -38989.663      340.20264     -38649.461      80205.309      14.488933    
    277000   517.4667      -2592.0583     -38977.263      334.37222     -38642.89       80284.984      14.474554    
    278000   535.57703     -1224.6103     -38983.845      346.0746      -38637.77       80247.041      14.481398    
    279000   544.05091     -2324.1897     -38977.032      351.55018     -38625.482      80296.243      14.472525    
    280000   530.97508     -1416.3076     -38988.639      343.10094     -38645.538      80225.388      14.485307    
    281000   543.72844     -265.74929     -38974.3        351.3418      -38622.959      80247.008      14.481404    
    282000   529.86756     -100.36029     -38976.203      342.38529     -38633.818      80213.72       14.487414    
    283000   552.95202     -1615.0679     -38968.454      357.30182     -38611.152      80289.141      14.473805    
    284000   541.90083      761.49347     -38967.459      350.16085     -38617.298      80241.227      14.482448    
    285000   547.91585      958.95498     -38967.959      354.04759     -38613.912      80249.047      14.481036    
    286000   560.13103     -644.44663     -38961.914      361.94069     -38599.974      80313.418      14.46943     
    287000   554.91166      961.57454     -38963.092      358.56808     -38604.524      80252.472      14.480418    
    288000   564.73127      1676.2726     -38966.189      364.91323     -38601.276      80218.111      14.486621    
    289000   583.43712     -720.01395     -38958.924      377.00042     -38581.923      80307.074      14.470573    
    290000   568.11072     -1031.6143     -38952.087      367.09694     -38584.99       80340.62       14.464531    
    291000   561.42294      278.02244     -38959.939      362.77549     -38597.164      80303.283      14.471256    
    292000   563.51584     -1803.1326     -38948.063      364.12786     -38583.935      80391.549      14.455367    
    293000   591.57962     -30.541259     -38946.776      382.26187     -38564.514      80338.644      14.464887    
    294000   582.23712     -832.82521     -38951.905      376.22502     -38575.68       80357.85       14.461429    
    295000   582.38895     -700.04679     -38951.297      376.32312     -38574.974      80366.415      14.459888    
    296000   579.01751      1748.6295     -38938.933      374.14459     -38564.788      80328.059      14.466793    
    297000   589.27976     -486.09047     -38944.831      380.77576     -38564.055      80368.77       14.459464    
    298000   597.76413     -1318.0239     -38938.979      386.25812     -38552.721      80405.867      14.452793    
    299000   590.77949     -1097.8627     -38945.909      381.74485     -38564.164      80383.21       14.456867    
    300000   603.60238      676.44133     -38935.915      390.03063     -38545.885      80382.343      14.457023    
    301000   592.86736     -142.36297     -38933.123      383.09397     -38550.029      80401.285      14.453617    
    302000   609.26064     -1822.0421     -38942.202      393.68684     -38548.515      80410.965      14.451877    
    303000   615.56507     -1393.9286     -38933.119      397.76058     -38535.359      80462.697      14.442585    
    304000   610.9476      -1323.4577     -38938.412      394.77691     -38543.635      80417.621      14.450681    
    305000   621.63643     -888.61428     -38927.849      401.68372     -38526.165      80444.8        14.445799    
    306000   616.41796      1223.6325     -38930.095      398.3117      -38531.783      80392.169      14.455256    
    307000   626.105        5078.5088     -38915.724      404.57118     -38511.153      80321.823      14.467916    
    308000   626.94684      3439.4673     -38927.986      405.11516     -38522.871      80334.475      14.465637    
    309000   635.27324      1133.0596     -38919.785      410.49544     -38509.29       80409.96       14.452058    
    310000   637.69266      892.82508     -38922.996      412.0588      -38510.937      80398.765      14.45407     
    311000   637.75957     -8.5212845     -38920.527      412.10204     -38508.425      80453.835      14.444176    
    312000   647.48581     -2143.8025     -38914.356      418.38685     -38495.969      80544.612      14.427897    
    313000   639.6437       301.34621     -38915.771      413.31951     -38502.452      80444.119      14.445921    
    314000   639.16456      1397.688      -38907.669      413.0099      -38494.659      80461.726      14.44276     
    315000   641.29011     -1837.6175     -38912.298      414.38337     -38497.915      80528.239      14.430831    
    316000   648.2816      -3917.1717     -38903.789      418.90107     -38484.888      80620.346      14.414344    
    317000   639.3821      -1874.8663     -38911.817      413.15047     -38498.667      80530.469      14.430431    
    318000   647.64335      188.86512     -38900.742      418.48865     -38482.253      80508.481      14.434372    
    319000   650.40684     -2330.5288     -38897.943      420.27434     -38477.669      80592.485      14.419327    
    320000   648.20159      1716.5087     -38893.866      418.84937     -38475.017      80505.362      14.434931    
    321000   669.24371      1905.0861     -38888.609      432.44619     -38456.163      80504.237      14.435133    
    322000   664.16079      1151.8922     -38896.187      429.16175     -38467.026      80507.667      14.434518    
    323000   674.82426      2128.5639     -38893.983      436.05218     -38457.931      80482.383      14.439053    
    324000   675.18619     -253.94149     -38891.223      436.28605     -38454.937      80572.635      14.422879    
    325000   669.67967     -294.40728     -38894.552      432.72789     -38461.825      80550.126      14.426909    
    326000   673.29155      2191.1736     -38881.733      435.06179     -38446.672      80542.503      14.428275    
    327000   680.38631     -589.35837     -38886.943      439.64622     -38447.296      80587.236      14.420266    
    328000   679.60787     -1058.8363     -38886.513      439.14322     -38447.37       80566.641      14.423952    
    329000   691.1891       1290.7368     -38878.944      446.62667     -38432.317      80558.719      14.425371    
    330000   692.32519     -1848.714      -38878.126      447.36078     -38430.765      80658.683      14.407493    
    331000   698.95879      671.97171     -38873.179      451.64723     -38421.531      80601.749      14.417669    
    332000   690.47598     -864.29678     -38879.644      446.16588     -38433.478      80601.444      14.417724    
    333000   713.74148     -97.000608     -38876.317      461.19938     -38415.118      80615.262      14.415253    
    334000   697.80695     -433.52983     -38866.127      450.90294     -38415.224      80664.557      14.406443    
    335000   706.24695     -944.45143     -38876.138      456.35663     -38419.782      80633.7        14.411956    
    336000   696.49546      2306.8443     -38870.711      450.05549     -38420.656      80558.752      14.425365    
    337000   725.6025       89.89316      -38870.48       468.86363     -38401.616      80630.066      14.412606    
    338000   717.72942     -3056.8265     -38873.58       463.77627     -38409.804      80715.025      14.397436    
    339000   723.81603      16.304232     -38860.78       467.70926     -38393.071      80668.179      14.405796    
    340000   721.22765     -1337.2808     -38856.814      466.03673     -38390.777      80727.013      14.395298    
    341000   728.00587      692.72702     -38864.546      470.41662     -38394.129      80638.204      14.411152    
    342000   738.6686       498.40346     -38857.811      477.30657     -38380.505      80667.013      14.406005    
    343000   722.84816      293.31102     -38863.497      467.08385     -38396.413      80648.634      14.409288    
    344000   744.12583      2406.5711     -38854.717      480.83288     -38373.885      80635.801      14.411581    
    345000   731.73736      2683.0154     -38851.388      472.8278      -38378.56       80640.075      14.410817    
    346000   745.90847     -2537.2364     -38851.21       481.98477     -38369.225      80753.156      14.390637    
    347000   752.82917      4028.3395     -38841.602      486.45673     -38355.146      80632.797      14.412118    
    348000   737.77636      738.242       -38849.442      476.73003     -38372.712      80678.59       14.403938    
    349000   744.03328      1550.5519     -38836.627      480.77308     -38355.853      80686.739      14.402483    
    350000   741.26255      2326.5319     -38846.315      478.98271     -38367.333      80642.804      14.41033     
    351000   758.17479     -2386.6402     -38838.673      489.91092     -38348.763      80790.714      14.383947    
    352000   738.11354      2366.3213     -38846.943      476.94791     -38369.995      80627.601      14.413047    
    353000   764.41846      484.69261     -38832.363      493.9454      -38338.418      80737.291      14.393465    
    354000   752.32355     -1778.36       -38833.829      486.13001     -38347.699      80789.588      14.384148    
    355000   774.32669     -700.55439     -38829.788      500.34781     -38329.44       80795.878      14.383028    
    356000   754.38972     -1634.4314     -38833.723      487.46511     -38346.258      80813.799      14.379838    
    357000   771.84153      1937.3338     -38828.479      498.74197     -38329.737      80752.722      14.390715    
    358000   770.54133     -2227.3446     -38820.865      497.90182     -38322.963      80840.935      14.375012    
    359000   767.82896      1519.2718     -38822.113      496.14917     -38325.964      80746.672      14.391793    
    360000   781.56991      2384.5558     -38816.715      505.02817     -38311.687      80757.34       14.389892    
    361000   781.03251     -969.59854     -38827.059      504.68092     -38322.378      80811.207      14.3803      
    362000   801.09671      1549.4213     -38822.415      517.64584     -38304.77       80752.952      14.390674    
    363000   790.0327      -2439.3343     -38803.455      510.49659     -38292.959      80934.846      14.358332    
    364000   794.72953     -566.37302     -38815.597      513.53155     -38302.066      80843.503      14.374555    
    365000   793.63177     -334.32691     -38802.693      512.8222      -38289.87       80885.17       14.36715     
    366000   788.89875     -1243.2086     -38815.393      509.76386     -38305.629      80859.965      14.371628    
    367000   807.01653      2108.1979     -38805.831      521.47105     -38284.36       80826.288      14.377617    
    368000   788.89797      3059.6594     -38815.565      509.76336     -38305.802      80735.932      14.393707    
    369000   798.94806      571.79094     -38794.128      516.25744     -38277.871      80861.638      14.371331    
    370000   795.97705     -2193.8269     -38811.49       514.33766     -38297.153      80903.404      14.363912    
    371000   814.11369      2152.1851     -38794.424      526.05704     -38268.367      80841.432      14.374923    
    372000   816.69977      14.163348     -38800.573      527.72809     -38272.845      80867.629      14.370266    
    373000   828.58231      629.12818     -38790.355      535.40624     -38254.949      80888.78       14.366509    
    374000   820.15821     -4561.6436     -38801.025      529.96283     -38271.062      81014.587      14.344199    
    375000   834.01705     -744.91323     -38790.81       538.91802     -38251.892      80933.882      14.358503    
    376000   835.82125     -2727.9963     -38782.786      540.08384     -38242.702      81016.632      14.343837    
    377000   820.68265      1056.468      -38790.034      530.30171     -38259.733      80882.282      14.367663    
    378000   837.74559      757.12435     -38782.216      541.3273      -38240.888      80931.321      14.358957    
    379000   831.7533       3470.4004     -38785.576      537.45525     -38248.121      80832.824      14.376454    
    380000   837.40785      2537.8684     -38783.724      541.10906     -38242.615      80871.151      14.369641    
    381000   844.1742       1222.3523     -38776.146      545.48128     -38230.665      80916.344      14.361615    
    382000   855.96268     -613.15196     -38774.006      553.09866     -38220.908      80990.586      14.34845     
    383000   852.35186     -62.109897     -38785.148      550.76545     -38234.382      80941.789      14.3571      
    384000   856.29599      713.88396     -38758.721      553.31403     -38205.407      80978.754      14.350547    
    385000   863.84345     -168.88667     -38777.935      558.19099     -38219.744      80982.775      14.349834    
    386000   862.49209      3062.4331     -38765.095      557.31778     -38207.777      80903.625      14.363873    
    387000   866.15182      5794.7259     -38776.839      559.68259     -38217.156      80796.584      14.382902    
    388000   858.78481      1105.6835     -38775.48       554.92224     -38220.557      80924.638      14.360143    
    389000   854.48554     -2629.384      -38759.127      552.14417     -38206.983      81082.082      14.332259    
    390000   874.15393     -3797.6006     -38758.623      564.85333     -38193.77       81111.55       14.327052    
    391000   856.89972     -597.6369      -38759.511      553.70415     -38205.807      81048.794      14.338145    
    392000   874.1107       641.19159     -38765.882      564.82539     -38201.057      80993.428      14.347946    
    393000   885.41986      1015.1554     -38753.289      572.13305     -38181.156      81008.426      14.34529     
    394000   891.61539      277.05299     -38759.498      576.13642     -38183.362      81007.346      14.345481    
    395000   893.50598     -127.1502      -38752.498      577.35807     -38175.14       81046.009      14.338638    
    396000   867.8446      -766.93303     -38750.285      560.77641     -38189.508      81044.52       14.338901    
    397000   895.445        3279.5098     -38746.823      578.61101     -38168.212      80956.841      14.354431    
    398000   909.43569     -3364.6077     -38740.089      587.65139     -38152.438      81169.821      14.316767    
    399000   887.47033      894.27075     -38735.732      573.458       -38162.274      81068.534      14.334654    
    400000   895.00226     -4090.2908     -38748.918      578.32492     -38170.594      81163.659      14.317853    
    401000   907.26772     -747.74286     -38733.835      586.25051     -38147.584      81106.876      14.327877    
    402000   913.39173      4690.4218     -38747.495      590.20767     -38157.287      80942.012      14.357061    
    403000   902.61931     -730.75324     -38739.82       583.24684     -38156.573      81114.108      14.3266      
    404000   935.61009     -2215.8671     -38737.777      604.56454     -38133.212      81157.473      14.318945    
    405000   916.11212     -1481.097      -38738.251      591.96551     -38146.286      81107.778      14.327718    
    406000   926.44481     -5799.3885     -38723.925      598.6422      -38125.282      81300.425      14.293768    
    407000   924.27686     -1072.1759     -38719.746      597.24133     -38122.504      81176.015      14.315674    
    408000   928.66234     -715.42182     -38724.367      600.07511     -38124.292      81165.07       14.317605    
    409000   926.1465       927.66459     -38728.239      598.44944     -38129.789      81090.511      14.330769    
    410000   942.81741      2160.6224     -38720.038      609.22171     -38110.816      81093.428      14.330253    
    411000   933.49419      958.82487     -38721.425      603.19731     -38118.227      81118.956      14.325744    
    412000   944.73866      3746.9488     -38710.338      610.46316     -38099.875      81058.062      14.336506    
    413000   943.7993      -1173.4075     -38722.968      609.85618     -38113.112      81169.693      14.316789    
    414000   944.58599     -2003.5031     -38697.102      610.36451     -38086.737      81277.495      14.2978      
    415000   949.00307     -3330.7321     -38707.4        613.21871     -38094.182      81277.363      14.297823    
    416000   961.80129      2538.7882     -38711.27       621.48855     -38089.781      81107.92       14.327693    
    417000   952.56444      2645.8287     -38702.048      615.51996     -38086.528      81120.693      14.325437    
    418000   958.28624     -653.86466     -38699.623      619.21722     -38080.406      81236.541      14.305008    
    419000   958.82369     -3603.4972     -38704.622      619.56451     -38085.057      81274.821      14.29827     
    420000   950.34385     -4803.6225     -38695.624      614.08508     -38081.539      81352.475      14.284622    
    421000   975.29064     -1744.1192     -38696.596      630.20498     -38066.391      81259.98       14.300882    
    422000   962.92641     -358.85818     -38701.049      622.21557     -38078.834      81204.178      14.310709    
    423000   964.17746     -12.383512     -38689.063      623.02396     -38066.039      81231.077      14.30597     
    424000   972.56448      1268.1072     -38686.456      628.44341     -38058.013      81223.451      14.307313    
    425000   973.97929     -624.40082     -38687.954      629.35762     -38058.596      81255.612      14.301651    
    426000   959.14792     -601.07139     -38687.358      619.77401     -38067.584      81244.748      14.303563    
    427000   983.38401     -2026.5529     -38685.778      635.43468     -38050.344      81311.748      14.291777    
    428000   1005.3427      62.286137     -38693.281      649.62378     -38043.657      81221.105      14.307727    
    429000   986.66523      3173.5997     -38673.307      637.55491     -38035.752      81172.927      14.316219    
    430000   973.3708      -1242.8779     -38677.255      628.96444     -38048.29       81321.555      14.290054    
    431000   999.73953      1083.411      -38671.685      646.00316     -38025.682      81276.468      14.297981    
    432000   976.76759      1061.6201     -38675.962      631.15935     -38044.803      81229.614      14.306228    
    433000   1008.3837     -910.83034     -38669.769      651.58875     -38018.181      81311.589      14.291805    
    434000   1002.697       187.73105     -38692.135      647.91417     -38044.221      81255.372      14.301693    
    435000   994.20905      2421.1583     -38659.824      642.42952     -38017.394      81255.76       14.301625    
    436000   1020.4188     -907.85237     -38659.777      659.36553     -38000.411      81369.017      14.281718    
    437000   1009.5131      3889.4593     -38666.645      652.31856     -38014.326      81170.696      14.316612    
    438000   1040.4717     -3083.9654     -38660.678      672.32314     -37988.354      81427.228      14.271509    
    439000   1015.1754      3099.1371     -38664.015      655.97738     -38008.037      81240.641      14.304286    
    440000   1041.5989     -50.163996     -38659.957      673.0515      -37986.906      81365.428      14.282348    
    441000   1027.7388     -3602.2486     -38645.749      664.09549     -37981.653      81449.952      14.267527    
    442000   1027.9426      5002.3752     -38659.856      664.22719     -37995.629      81212.894      14.309173    
    443000   1026.9975     -2900.9404     -38647.962      663.61646     -37984.346      81446.873      14.268066    
    444000   1037.2551      854.99732     -38651.377      670.24467     -37981.132      81335.687      14.287571    
    445000   1022.4939     -478.0101      -38644.812      660.70637     -37984.105      81365.628      14.282313    
    446000   1036.7559     -1166.9225     -38654.641      669.92209     -37984.719      81382.891      14.279283    
    447000   1040.095      -1318.4274     -38645.264      672.07973     -37973.184      81421.646      14.272487    
    448000   1024.9355      1938.9359     -38639.362      662.28404     -37977.078      81342.029      14.286457    
    449000   1063.4364      4967.2724     -38637.7        687.16225     -37950.538      81274.664      14.298298    
    450000   1049.1118      131.79989     -38636.287      677.90612     -37958.381      81383.609      14.279158    
    451000   1052.976       3484.7168     -38619.326      680.40305     -37938.923      81341.936      14.286473    
    452000   1040.3087      2080.1483     -38627.049      672.21783     -37954.831      81366.718      14.282122    
    453000   1061.9642     -1178.2688     -38616.297      686.21093     -37930.086      81492.585      14.260063    
    454000   1051.2952     -719.44869     -38624.771      679.31698     -37945.454      81438.866      14.269469    
    455000   1079.0689     -744.42282     -38626.309      697.26351     -37929.045      81405.114      14.275385    
    456000   1052.2301      1010.934      -38625.919      679.92108     -37945.998      81431.503      14.270759    
    457000   1083.5462     -88.24348      -38629.202      700.15664     -37929.045      81435.046      14.270138    
    458000   1073.508       1986.2219     -38621.713      693.67024     -37928.043      81392.714      14.27756     
    459000   1067.8974      124.17467     -38602.425      690.0448      -37912.381      81502.386      14.258348    
    460000   1079.2305     -4738.078      -38607.579      697.36794     -37910.211      81623.864      14.237128    
    461000   1076.3782     -3287.7822     -38628.572      695.52488     -37933.047      81529.283      14.253644    
    462000   1105.209       1191.1196     -38616.835      714.15452     -37902.681      81442.526      14.268828    
    463000   1081.0479      1310.1145     -38610.703      698.54228     -37912.161      81426.474      14.271641    
    464000   1097.5265     -2111.0838     -38622.954      709.1903      -37913.763      81508.498      14.257279    
    465000   1088.5385     -3529.8686     -38615.005      703.3825      -37911.622      81579.723      14.244831    
    466000   1083.266       927.95008     -38600.872      699.97558     -37900.897      81493.281      14.259941    
    467000   1112.0279      179.62966     -38592.628      718.56072     -37874.067      81525.002      14.254392    
    468000   1104.0225      3537.8259     -38607.157      713.38781     -37893.769      81401.563      14.276008    
    469000   1114.445       357.07592     -38595.776      720.12254     -37875.653      81510.505      14.256928    
    470000   1096.9127     -2399.4724     -38583.409      708.79368     -37874.616      81606.153      14.240218    
    471000   1096.7797     -2942.323      -38591.754      708.70778     -37883.046      81608.699      14.239773    
    472000   1100.9904     -1083.6925     -38588.18       711.42856     -37876.751      81553.821      14.249355    
    473000   1148.7068      465.84936     -38586.954      742.26153     -37844.693      81522.605      14.254812    
    474000   1117.7114      4144.0973     -38590.965      722.23323     -37868.732      81413.69       14.273882    
    475000   1149.7095      140.22668     -38579.512      742.90945     -37836.602      81573.769      14.245871    
    476000   1129.3012     -1485.2308     -38581.744      729.72222     -37852.021      81622.711      14.237329    
    477000   1134.8739      2300.4778     -38587.345      733.3231      -37854.022      81471.621      14.263732    
    478000   1142.0206      1235.6487     -38574.96       737.94113     -37837.018      81542.647      14.251308    
    479000   1130.7259     -62.867957     -38580.961      730.64282     -37850.318      81559.75       14.248319    
    480000   1167.6649      2299.6897     -38572.399      754.51172     -37817.887      81524.238      14.254526    
    481000   1132.1027     -244.4147      -38568.387      731.53245     -37836.854      81590.709      14.242913    
    482000   1145.3862     -410.28671     -38551.513      740.1159      -37811.397      81666.144      14.229757    
    483000   1125.64       -230.25172     -38566.319      727.35645     -37838.962      81580.991      14.24461     
    484000   1176.0139      4817.0001     -38562.446      759.90662     -37802.539      81476.552      14.262869    
    485000   1136.4579      1690.3868     -38572.564      734.34668     -37838.217      81542.894      14.251265    
    486000   1158.5228      534.66172     -38559.997      748.60435     -37811.393      81634.464      14.235279    
    487000   1160.0871     -5086.7511     -38561.471      749.61515     -37811.856      81804.493      14.205691    
    488000   1161.4621     -2178.1089     -38551.327      750.50365     -37800.824      81720.292      14.220328    
    489000   1170.4952      525.91937     -38562.936      756.34059     -37806.595      81612.85       14.239049    
    490000   1169.3766      526.91088     -38549.115      755.61776     -37793.497      81639.978      14.234318    
    491000   1177.6979     -4934.2107     -38558.637      760.99478     -37797.642      81771.233      14.211469    
    492000   1165.13       -873.28577     -38556.861      752.87375     -37803.987      81657.214      14.231313    
    493000   1179.0194      17.391975     -38539.707      761.84868     -37777.858      81682.444      14.226917    
    494000   1160.6544      425.76553     -38557.605      749.98172     -37807.623      81623.167      14.237249    
    495000   1190.5634      1488.9139     -38553.375      769.30808     -37784.067      81591.546      14.242767    
    496000   1188.7991     -4649.3416     -38542.269      768.16806     -37774.101      81803.708      14.205828    
    497000   1196.2733     -186.58745     -38536.152      772.9977      -37763.154      81706.918      14.222656    
    498000   1201.8536     -1909.6601     -38534.247      776.6035      -37757.643      81753.139      14.214615    
    499000   1217.5543     -2334.0729     -38520.212      786.74885     -37733.463      81813.967      14.204046    
    500000   1198.5205     -3402.7993     -38540.984      774.44974     -37766.534      81799.493      14.20656     
    501000   1212.6531      3151.8789     -38529.978      783.58182     -37746.396      81646.241      14.233226    
    502000   1192.1072     -676.45636     -38536.383      770.30567     -37766.078      81683.465      14.226739    
    503000   1204.5364     -2744.1171     -38532.873      778.33706     -37754.536      81801.775      14.206163    
    504000   1216.0282      606.57033     -38524.9        785.7627      -37739.137      81698.431      14.224133    
    505000   1216.4115     -706.59076     -38504.063      786.01041     -37718.052      81829.792      14.201299    
    506000   1214.0744      3970.176      -38531.2        784.50023     -37746.7        81603.497      14.240681    
    507000   1218.7737      2568.8568     -38521.769      787.53679     -37734.232      81681.715      14.227044    
    508000   1245.4798     -5916.6714     -38509.705      804.79352     -37704.911      81968.211      14.177318    
    509000   1244.3559     -2726.5829     -38524.935      804.06729     -37720.867      81821.947      14.202661    
    510000   1244.108      -1196.1374     -38502.598      803.90711     -37698.691      81840.021      14.199524    
    511000   1205.3024     -2493.6603     -38517.682      778.83204     -37738.85       81823.946      14.202314    
    512000   1253.192       2881.0084     -38508.181      809.77692     -37698.404      81694.459      14.224825    
    513000   1246.2119     -2400.8354     -38482.327      805.26658     -37677.061      81886.987      14.19138     
    514000   1234.7012     -1365.516      -38506.371      797.82871     -37708.542      81834.626      14.200461    
    515000   1252.2821     -4699.7951     -38489.701      809.18896     -37680.512      81944.771      14.181373    
    516000   1239.7386     -3760.2533     -38494.166      801.08373     -37693.083      81925.755      14.184665    
    517000   1269.9164     -2731.6933     -38500.171      820.58373     -37679.587      81890.261      14.190813    
    518000   1255.8619     -669.09445     -38503.341      811.5021      -37691.838      81853          14.197273    
    519000   1218.3883      268.37664     -38505.835      787.28776     -37718.548      81775.261      14.210769    
    520000   1260.2354      775.63996     -38487.755      814.32813     -37673.427      81832          14.200916    
    521000   1281.4311      1666.5606     -38480.117      828.02424     -37652.093      81811.286      14.204512    
    522000   1243.6457      308.56567     -38487.411      803.60838     -37683.802      81848.31       14.198086    
    523000   1271.0658      417.52482     -38466.023      821.32645     -37644.696      81865.329      14.195135    
    524000   1258.4783     -3172.4049     -38487.907      813.19276     -37674.715      81882.755      14.192114    
    525000   1286.4949     -2924.0904     -38456.503      831.29628     -37625.206      82008.106      14.170421    
    526000   1278.2133      162.32413     -38479.955      825.94498     -37654.01       81854.198      14.197065    
    527000   1278.2231     -759.59402     -38462.655      825.95128     -37636.703      81944.138      14.181483    
    528000   1305.3825     -2205.6321     -38468.624      843.50095     -37625.123      81948.778      14.18068     
    529000   1285.3454      2788.576      -38474.596      830.55355     -37644.042      81799.009      14.206644    
    530000   1304.6107      2798.2567     -38452.035      843.00219     -37609.033      81832.756      14.200785    
    531000   1285.2149     -1562.0491     -38469.056      830.46919     -37638.587      81931.961      14.18359     
    532000   1305.2557      998.25619     -38460.293      843.41899     -37616.874      81886.732      14.191424    
    533000   1301.3024     -1632.0325     -38467.993      840.86445     -37627.129      81958.319      14.179029    
    534000   1301.6499     -2410.7479     -38448.32       841.089       -37607.231      81998.85       14.17202     
    535000   1287.7624     -3071.0228     -38462.427      832.11532     -37630.312      82028.374      14.16692     
    536000   1298.7663     -2158.0101     -38453.057      839.22575     -37613.831      81981.294      14.175055    
    537000   1304.9721      2194.7309     -38463.708      843.23574     -37620.472      81859.158      14.196205    
    538000   1300.4194     -1383.5156     -38443.732      840.29389     -37603.438      81997.86       14.172191    
    539000   1302.4436      2112.3609     -38448.415      841.60187     -37606.813      81895.892      14.189837    
    540000   1310.7487      446.55963     -38444.687      846.96843     -37597.718      81955.319      14.179548    
    541000   1294.3507     -1857.6801     -38443.667      836.37249     -37607.295      82016.429      14.168983    
    542000   1309.0766     -1957.3716     -38441.9        845.88794     -37596.012      82012.669      14.169632    
    543000   1315.6144     -331.72071     -38437.535      850.11249     -37587.423      81986.807      14.174102    
    544000   1316.7881      1169.1128     -38429.871      850.87093     -37579          81985.496      14.174329    
    545000   1334.9533     -4221.0844     -38445.675      862.6087      -37583.067      82056.907      14.161993    
    546000   1357.2578      3691.581      -38445.538      877.02127     -37568.517      81887.75       14.191248    
    547000   1346.5683     -2142.7974     -38446.403      870.11401     -37576.289      82009.944      14.170103    
    548000   1353.8745      362.89892     -38438.77       874.83507     -37563.934      81991.775      14.173243    
    549000   1348.4314     -1541.1098     -38419.574      871.31787     -37548.256      82032.165      14.166265    
    550000   1341.8429     -2026.0387     -38434.129      867.06061     -37567.068      82049.658      14.163245    
    551000   1363.3696      1116.1785     -38420.405      880.9705      -37539.434      81997.401      14.172271    
    552000   1362.5763      3884.6393     -38431.694      880.45792     -37551.236      81887.347      14.191318    
    553000   1369.0071     -572.41455     -38422.664      884.61332     -37538.051      82045.443      14.163972    
    554000   1362.5772      3937.6422     -38415.811      880.45849     -37535.353      81922.535      14.185222    
    555000   1362.7931     -2320.7077     -38421.09       880.59804     -37540.492      82123.974      14.150428    
    556000   1394.2315      416.96953     -38429.536      900.91259     -37528.624      81998.448      14.17209     
    557000   1351.601       739.89124     -38411.681      873.366       -37538.315      82028.195      14.16695     
    558000   1380.1643      1231.8951     -38404.591      891.82276     -37512.768      82057.93       14.161817    
    559000   1362.6731      1789.5124     -38427.152      880.52045     -37546.632      81923.421      14.185069    
    560000   1387.6583     -1539.7148     -38413.445      896.6652      -37516.78       82069.533      14.159815    
    561000   1370.0184      3168.8419     -38396.524      885.26683     -37511.257      82008.274      14.170392    
    562000   1357.3903     -643.67799     -38396.258      877.10686     -37519.151      82085.221      14.157108    
    563000   1396.92       -1463.2903     -38382.15       902.64987     -37479.5        82143.65       14.147038    
    564000   1391.6717     -3277.8332     -38412.99       899.25852     -37513.732      82143.979      14.146982    
    565000   1398.9759     -2381.855      -38388.814      903.9783      -37484.835      82164.943      14.143372    
    566000   1391.3935     -271.14832     -38402.94       899.07875     -37503.862      82073.25       14.159173    
    567000   1410.3002     -3783.6887     -38389.058      911.29577     -37477.762      82203.189      14.136792    
    568000   1384.4155     -225.60764     -38407.663      894.56982     -37513.093      82055.202      14.162288    
    569000   1413.2568      1646.5342     -38381.263      913.20624     -37468.057      82067.089      14.160236    
    570000   1405.717       3000.2871     -38399.603      908.33422     -37491.269      81984.806      14.174448    
    571000   1401.0704     -4846.8997     -38386.522      905.33173     -37481.191      82231.72       14.131887    
    572000   1448.8751     -712.54186     -38369.191      936.22173     -37432.969      82176.936      14.141308    
    573000   1406.3555      229.51823     -38372.365      908.74677     -37463.618      82137.267      14.148138    
    574000   1440.6621      1947.8066     -38361.177      930.91476     -37430.263      82108.837      14.153037    
    575000   1418.0919     -2081.0404     -38368.206      916.33049     -37451.876      82184.852      14.139946    
    576000   1444.3416      4097.8322     -38379.288      933.29235     -37445.996      82033.596      14.166018    
    577000   1435.7788      4123.6685     -38346.848      927.75927     -37419.089      82071.731      14.159435    
    578000   1407.5238     -1546.2125     -38362.552      909.5017      -37453.05       82199.957      14.137348    
    579000   1428.5216      2245.0368     -38350.956      923.06988     -37427.886      82145.453      14.146728    
    580000   1450.6932      3264.8611     -38365.703      937.39652     -37428.306      82077.245      14.158484    
    581000   1431.3304      2774.4564     -38347.694      924.88483     -37422.809      82127.238      14.149865    
    582000   1443.5698      1359.2856     -38357.967      932.79358     -37425.174      82160.354      14.144162    
    583000   1436.8764      368.75297     -38346.873      928.46854     -37418.404      82210.336      14.135563    
    584000   1434.2068      233.73481     -38342.637      926.74351     -37415.894      82179.645      14.140842    
    585000   1432.3223      2170.8773     -38360.932      925.5258      -37435.406      82121.743      14.150812    
    586000   1449.8679      1921.4589     -38348.708      936.86326     -37411.845      82126.185      14.150047    
    587000   1463.1904     -7188.7685     -38327.199      945.47191     -37381.727      82506.263      14.084862    
    588000   1479.9422      1149.5294     -38333.983      956.2964      -37377.686      82209.648      14.135681    
    589000   1454.6618     -2633.8049     -38346.529      939.96094     -37406.568      82301.955      14.119827    
    590000   1485.6531     -427.58143     -38332.628      959.98662     -37372.641      82266.922      14.12584     
    591000   1482.5839     -2127.3885     -38348.239      958.00342     -37390.236      82283.006      14.123079    
    592000   1466.4434     -2066.5014     -38331.737      947.5739      -37384.163      82305.825      14.119163    
    593000   1487.3928     -127.51736     -38340.863      961.11077     -37379.752      82226.049      14.132862    
    594000   1490.3573     -2120.3022     -38323.518      963.02637     -37360.492      82325.559      14.115779    
    595000   1481.4478     -3768.4936     -38334.421      957.26927     -37377.152      82366.826      14.108706    
    596000   1498.1187      3145.5898     -38320.58       968.04159     -37352.538      82180.484      14.140698    
    597000   1461.5673      114.04733     -38315.49       944.42309     -37371.067      82276.854      14.124135    
    598000   1495.1476     -576.0127      -38350.735      966.12173     -37384.614      82232.234      14.131799    
    599000   1482.6343      2830.7918     -38314.232      958.03596     -37356.196      82232.696      14.131719    
    600000   1493.3307      715.4713      -38322.552      964.9477      -37357.605      82233.533      14.131575    
    601000   1513.541      -4022.4159     -38320.049      978.00701     -37342.042      82384.395      14.105698    
    602000   1502.2483      2040.6202     -38324.876      970.70999     -37354.166      82216.825      14.134447    
    603000   1538.7687     -48.157582     -38296.852      994.30841     -37302.544      82349.895      14.111607    
    604000   1523.0521     -467.77772     -38324.613      984.1528      -37340.46       82274.879      14.124474    
    605000   1530.2605     -1939.7461     -38293.756      988.81068     -37304.946      82378.281      14.106745    
    606000   1506.7534     -2368.155      -38311.809      973.62105     -37338.188      82372.752      14.107691    
    607000   1515.6542     -494.96039     -38316.998      979.37247     -37337.626      82329.329      14.115132    
    608000   1520.3193     -1540.3967     -38296.907      982.38695     -37314.52       82405.333      14.102114    
    609000   1519.7544      937.99146     -38312.673      982.02195     -37330.651      82267.321      14.125771    
    610000   1551.4922     -2429.2621     -38303.67       1002.53       -37301.14       82385.801      14.105457    
    611000   1552.3044      6933.5203     -38311.622      1003.0548     -37308.567      82103.942      14.15388     
    612000   1504.018      -1835.106      -38283.974      971.85353     -37312.12       82414.395      14.100563    
    613000   1514.9248     -2647.7744     -38258.038      978.90119     -37279.137      82480.955      14.089184    
    614000   1558.326      -2069.2669     -38272.916      1006.9458     -37265.97       82469.331      14.09117     
    615000   1545.4871      1196.1142     -38286.194      998.64964     -37287.545      82328.256      14.115316    
    616000   1529.0171      1484.7059     -38274.164      988.00725     -37286.156      82349.036      14.111755    
    617000   1558.5456     -1190.3091     -38254.66       1007.0877     -37247.573      82433.662      14.097267    
    618000   1541.2234      1073.592      -38273.067      995.89458     -37277.172      82368.901      14.108351    
    619000   1534.8259     -1588.6186     -38289.996      991.76071     -37298.236      82421.107      14.099415    
    620000   1572.3245      562.82377     -38273.815      1015.9912     -37257.823      82385.909      14.105439    
    621000   1549.2506      2117.9569     -38282.627      1001.0815     -37281.546      82313.812      14.117793    
    622000   1551.7705      1662.9622     -38272.14       1002.7098     -37269.43       82396.789      14.103576    
    623000   1575.1843     -537.22569     -38242.463      1017.8391     -37224.624      82458.649      14.092996    
    624000   1556.1096     -291.53132     -38275.406      1005.5136     -37269.892      82380.398      14.106382    
    625000   1577.9681     -2968.7295     -38241.759      1019.638      -37222.121      82560.446      14.075619    
    626000   1566.7239     -4462.3918     -38276.447      1012.3723     -37264.075      82501.879      14.085611    
    627000   1579.6106     -4807.1814     -38249.282      1020.6993     -37228.583      82612.442      14.06676     
    628000   1574.1767      1211.8343     -38265.699      1017.188      -37248.51       82352.217      14.111209    
    629000   1577.0973      1514.8076     -38250.442      1019.0752     -37231.367      82435.582      14.096939    
    630000   1559.9586     -3017.9006     -38255.282      1008.0008     -37247.281      82513.256      14.083669    
    631000   1626.837      -4694.8457     -38254.477      1051.2157     -37203.261      82577.494      14.072713    
    632000   1580.9763     -350.13028     -38249.518      1021.5818     -37227.936      82475.934      14.090042    
    633000   1597.9389     -547.61986     -38231.357      1032.5425     -37198.814      82527.467      14.081244    
    634000   1590.1826     -5028.7989     -38264.502      1027.5306     -37236.971      82558.997      14.075866    
    635000   1588.0077      3198.6768     -38233.893      1026.1253     -37207.768      82390.002      14.104738    
    636000   1602.8937      1058.9972     -38246.037      1035.7441     -37210.293      82432.886      14.0974      
    637000   1623.1455      4923.6979     -38241.989      1048.8303     -37193.158      82334.623      14.114225    
    638000   1629.1678      199.07682     -38226.919      1052.7218     -37174.197      82531.201      14.080607    
    639000   1607.66       -6194          -38218.35       1038.824      -37179.526      82735.384      14.045857    
    640000   1634.8451      1255.3969     -38233.996      1056.3903     -37177.606      82472.102      14.090697    
    641000   1640.2885      1315.6943     -38214.281      1059.9076     -37154.373      82483.207      14.0888      
    642000   1624.4381     -534.81373     -38233.989      1049.6655     -37184.323      82489          14.08781     
    643000   1648.1126     -2220.5925     -38239.741      1064.9633     -37174.778      82554.335      14.076661    
    644000   1620.9492     -4068.7021     -38197.479      1047.4111     -37150.068      82717.175      14.048949    
[...]
   9041000   298.67908     -1173.1895     -39132.143      192.9979      -38939.145      79591.125      14.600741    
   9042000   299.17711      384.45356     -39131.54       193.31971     -38938.22       79545.391      14.609135    
   9043000   298.44432      1221.9494     -39130.94       192.8462      -38938.093      79536.515      14.610766    
   9044000   297.04206     -1886.6547     -39134.732      191.9401      -38942.791      79588.786      14.60117     
   9045000   298.61684      472.99726     -39134.635      192.95768     -38941.677      79536.69       14.610733    
   9046000   299.58881      278.87561     -39131.323      193.58574     -38937.737      79562.615      14.605973    
   9047000   301.21867      1467.2516     -39133.136      194.63891     -38938.497      79516.929      14.614364    
   9048000   304.32499      758.54048     -39131.261      196.64613     -38934.614      79543.257      14.609527    
   9049000   291.76264      176.35838     -39133.615      188.5287      -38945.087      79551.023      14.608101    
   9050000   303.08547     -142.78677     -39134.143      195.84518     -38938.298      79550.655      14.608168    
   9051000   294.44978      987.76179     -39128.783      190.26504     -38938.517      79541.291      14.609888    
   9052000   295.17768      349.12345     -39134.177      190.73539     -38943.442      79543.237      14.609531    
   9053000   299.5771       1741.5599     -39128.744      193.57817     -38935.166      79524.681      14.61294     
   9054000   302.71466     -703.09922     -39136.766      195.60558     -38941.161      79556.724      14.607054    
   9055000   305.04218      2708.9344     -39130.811      197.10955     -38933.701      79502.226      14.617067    
   9056000   302.21259      498.46083     -39134.573      195.28115     -38939.292      79534.978      14.611048    
   9057000   301.11183      19.79602      -39130.128      194.56987     -38935.558      79576.933      14.603345    
   9058000   298.94975     -383.68371     -39134.662      193.1728      -38941.489      79559.194      14.606601    
   9059000   301.52418     -106.48068     -39133.426      194.83632     -38938.59       79545.62       14.609093    
   9060000   300.90232      1653.8302     -39131.856      194.4345      -38937.422      79519.999      14.6138      
   9061000   297.6553       609.86249     -39132.447      192.33636     -38940.111      79549.131      14.608448    
   9062000   295.38646      3260.0229     -39132.649      190.8703      -38941.779      79469.827      14.623026    
   9063000   301.99688      1324.2284     -39130.397      195.14177     -38935.256      79539.298      14.610254    
   9064000   297.29182     -564.13894     -39129.539      192.10149     -38937.438      79580.744      14.602645    
   9065000   295.69516     -3540.4324     -39133.379      191.06978     -38942.31       79648.681      14.59019     
   9066000   305.74926      886.42928     -39129.225      197.56644     -38931.659      79556.879      14.607026    
   9067000   300.99386     -1966.7739     -39133.361      194.49364     -38938.868      79607.269      14.59778     
   9068000   299.02682      884.80054     -39129.277      193.2226      -38936.054      79547.718      14.608708    
   9069000   305.69931     -223.08377     -39133.579      197.53417     -38936.045      79560.573      14.606347    
   9070000   298.35909      2422.6194     -39131.091      192.79113     -38938.3        79512.918      14.615102    
   9071000   298.95489      761.7894      -39129.349      193.17612     -38936.173      79563.256      14.605855    
   9072000   298.12704      576.00422     -39131.397      192.64119     -38938.756      79548.151      14.608628    
   9073000   306.30857      499.67328     -39132.507      197.92786     -38934.579      79561.492      14.606179    
   9074000   297.11459     -1174.7222     -39133.97       191.98697     -38941.983      79583.237      14.602188    
   9075000   307.59716     -1610.786      -39131.225      198.76051     -38932.465      79613.291      14.596676    
   9076000   299.81027     -1729.0829     -39133.783      193.72884     -38940.054      79609.414      14.597386    
   9077000   300.99823     -1163.4382     -39128.277      194.49647     -38933.781      79605.694      14.598069    
   9078000   301.87415      2102.4407     -39133.78       195.06246     -38938.717      79510.126      14.615615    
   9079000   297.81215     -1632.0783     -39126.281      192.43771     -38933.843      79636.535      14.592415    
   9080000   298.6645      -796.68337     -39131.001      192.98848     -38938.013      79598.378      14.59941     
   9081000   301.41137      1545.3378     -39135.524      194.76343     -38940.76       79502.811      14.61696     
   9082000   302.94832      2183.7693     -39125.809      195.75656     -38930.053      79532.953      14.61142     
   9083000   296.28962      1069.9424     -39131.301      191.4539      -38939.847      79546.428      14.608945    
   9084000   301.76314      707.17552     -39134.12       194.99073     -38939.129      79526.605      14.612586    
   9085000   302.80881     -904.82657     -39127.293      195.66641     -38931.627      79616.303      14.596123    
   9086000   296.05574     -2613.2151     -39132.263      191.30277     -38940.961      79622.48       14.594991    
   9087000   298.21961     -551.81552     -39130.83       192.701       -38938.129      79582.048      14.602406    
   9088000   296.05013     -2409.2632     -39129.445      191.29914     -38938.146      79639.405      14.591889    
   9089000   300.65596     -2015.7836     -39134.113      194.2753      -38939.837      79610.202      14.597242    
   9090000   297.06703      483.37866     -39131.276      191.95624     -38939.32       79545.738      14.609071    
   9091000   294.5605       325.17871     -39131.643      190.33659     -38941.306      79561.416      14.606193    
   9092000   303.3787       1988.9646     -39134.814      196.03466     -38938.78       79503.686      14.616799    
   9093000   304.95797     -1816.8657     -39132.988      197.05514     -38935.933      79611.433      14.597016    
   9094000   290.68148     -104.60478     -39133.358      187.83008     -38945.528      79546.558      14.608921    
   9095000   300.6799      -340.01305     -39131.773      194.29077     -38937.482      79563.276      14.605851    
   9096000   301.78667     -594.59296     -39132.703      195.00593     -38937.697      79583.479      14.602143    
   9097000   297.08651     -1781.6847     -39132.322      191.96883     -38940.353      79614.477      14.596458    
   9098000   305.16918      1192.571      -39127.846      197.19161     -38930.654      79554.154      14.607526    
   9099000   298.56263      2776.8586     -39135.039      192.92265     -38942.116      79479.778      14.621195    
   9100000   298.24199      431.05997     -39129.42       192.71546     -38936.705      79564.598      14.605608    
   9101000   299.21036     -112.02993     -39135.356      193.3412      -38942.015      79558.026      14.606815    
   9102000   299.00304      828.99658     -39133.41       193.20723     -38940.203      79543.336      14.609513    
   9103000   305.00919     -873.06845     -39130.955      197.08824     -38933.867      79596.327      14.599786    
   9104000   295.89307      798.93529     -39133.582      191.19766     -38942.384      79530.103      14.611943    
   9105000   298.51244      280.57107     -39129.76       192.89022     -38936.869      79572.672      14.604127    
   9106000   296.84265     -3485.8678     -39137.396      191.81125     -38945.585      79627.899      14.593998    
   9107000   297.26063     -474.95318     -39129.426      192.08134     -38937.345      79588.891      14.60115     
   9108000   296.34858     -349.16155     -39131.909      191.492       -38940.417      79587.816      14.601348    
   9109000   302.89431      535.3694      -39133.794      195.72166     -38938.072      79542.878      14.609597    
   9110000   303.39054     -1895.7587     -39128.43       196.04231     -38932.387      79630.774      14.593471    
   9111000   295.55212      663.00649     -39130.75       190.97735     -38939.773      79554.215      14.607515    
   9112000   307.19343     -976.59527     -39132.059      198.49963     -38933.56       79596.974      14.599668    
   9113000   299.35624     -1741.6469     -39132.049      193.43546     -38938.614      79611.069      14.597083    
   9114000   300.73598     -92.67839      -39131.485      194.32701     -38937.158      79567.266      14.605119    
   9115000   301.21497      1038.1671     -39132.473      194.63652     -38937.836      79530.774      14.61182     
   9116000   298.1958      -2890.3222     -39129.007      192.68562     -38936.321      79663.48       14.587479    
   9117000   297.91902     -746.75503     -39130.197      192.50677     -38937.69       79594.633      14.600097    
   9118000   294.33861     -1350.6731     -39133.397      190.19321     -38943.204      79589.515      14.601036    
   9119000   300.24691     -1633.8609     -39131.192      194.01099     -38937.181      79603.9        14.598397    
   9120000   296.11572     -1407.3503     -39132.739      191.34153     -38941.397      79600.297      14.599058    
   9121000   300.52971     -1295.225      -39133.114      194.19372     -38938.92       79605.863      14.598037    
   9122000   298.71173      917.10925     -39130.524      193.019       -38937.505      79546.138      14.608998    
   9123000   301.02866     -69.947489     -39134.879      194.51613     -38940.362      79552.567      14.607817    
   9124000   298.12207      1350.0773     -39132.996      192.63797     -38940.358      79523.225      14.613207    
   9125000   303.442       -154.67837     -39133.236      196.07556     -38937.16       79560.936      14.606281    
   9126000   300.70574     -161.85862     -39132.968      194.30747     -38938.66       79579.57       14.602861    
   9127000   299.38037     -215.44787     -39132.004      193.45105     -38938.553      79573.033      14.60406     
   9128000   297.63107      2150.7793     -39137.014      192.32071     -38944.693      79487.788      14.619722    
   9129000   300.20608      1652.529      -39131.332      193.9846      -38937.347      79524.244      14.61302     
   9130000   297.22463      1350.1688     -39132.045      192.05807     -38939.987      79530.27       14.611913    
   9131000   299.26815      948.77939     -39131.736      193.37854     -38938.358      79531.32       14.61172     
   9132000   305.19217      1005.4007     -39132.936      197.20647     -38935.729      79533.951      14.611237    
   9133000   296.30723     -1009.7393     -39128.95       191.46528     -38937.485      79602.124      14.598723    
   9134000   293.97218      760.03361     -39133.863      189.95644     -38943.907      79536.952      14.610685    
   9135000   304.22275     -67.964633     -39132.76       196.58006     -38936.18       79556.177      14.607155    
   9136000   299.79782      1140.7781     -39134.681      193.7208      -38940.96       79508.779      14.615862    
   9137000   302.11365      1432.9124     -39130.262      195.21722     -38935.044      79531.326      14.611719    
   9138000   298.65507      1748.3938     -39132.949      192.98238     -38939.967      79523.347      14.613185    
   9139000   300.77112     -1564.2161     -39135.204      194.34971     -38940.854      79593.383      14.600326    
   9140000   307.86094     -225.71842     -39131.31       198.93096     -38932.379      79574.401      14.603809    
   9141000   300.4244      -1042.2293     -39134.361      194.12567     -38940.236      79581.719      14.602466    
   9142000   301.72227     -216.74849     -39135.958      194.96432     -38940.994      79545.114      14.609186    
   9143000   298.99679     -384.56096     -39129.192      193.20319     -38935.989      79599.048      14.599287    
   9144000   299.69106      830.65938     -39134.56       193.65181     -38940.908      79527.927      14.612343    
   9145000   298.61695      1244.9669     -39132.194      192.95775     -38939.236      79536.538      14.610761    
   9146000   303.46365      424.84748     -39136.023      196.08955     -38939.934      79546.836      14.60887     
   9147000   295.28539      450.06069     -39133.923      190.80499     -38943.118      79521.849      14.61346     
   9148000   301.74415      3057.8125     -39131.476      194.97846     -38936.498      79487.006      14.619866    
   9149000   299.2616      -1255.638      -39131.144      193.37431     -38937.769      79598.368      14.599412    
   9150000   299.40844      1934.839      -39135.374      193.46919     -38941.905      79498.776      14.617702    
   9151000   300.20977      1778.8868     -39127.977      193.98699     -38933.99       79530.245      14.611917    
   9152000   298.65477     -881.28508     -39133.403      192.98219     -38940.421      79565.551      14.605434    
   9153000   303.0586      -1768.266      -39131.218      195.82782     -38935.39       79610.615      14.597166    
   9154000   304.95328     -349.35218     -39136.432      197.05211     -38939.38       79556.933      14.607016    
   9155000   291.90722      379.31677     -39135.589      188.62211     -38946.967      79542.966      14.609581    
   9156000   305.02803      372.99939     -39132.278      197.10041     -38935.177      79559.586      14.606529    
   9157000   300.7159       1192.1956     -39137.37       194.31404     -38943.056      79505.114      14.616536    
   9158000   300.21795     -631.1853      -39131.134      193.99227     -38937.142      79586.641      14.601563    
   9159000   296.73387     -1154.5965     -39132.636      191.74096     -38940.895      79592.566      14.600476    
   9160000   295.56354      2520.6614     -39135.662      190.98472     -38944.677      79470.869      14.622835    
   9161000   300.96849      1205.4229     -39132.958      194.47725     -38938.481      79535.492      14.610953    
   9162000   307.5016      -540.36165     -39133.506      198.69876     -38934.807      79571.618      14.60432     
   9163000   299.66133      280.76163     -39136.523      193.6326      -38942.89       79536.707      14.61073     
   9164000   295.1585       689.36002     -39127.594      190.723       -38936.871      79557.702      14.606875    
   9165000   295.88804     -1702.9918     -39133.535      191.19441     -38942.341      79611.165      14.597065    
   9166000   300.15303      1228.9884     -39131.254      193.95032     -38937.304      79531.005      14.611778    
   9167000   299.18816      1194.2579     -39131.078      193.32685     -38937.751      79543.041      14.609567    
   9168000   301.27845      1133.3586     -39134.645      194.67754     -38939.968      79529.634      14.61203     
   9169000   304.47467      1845.3835     -39129.458      196.74284     -38932.716      79524.344      14.613002    
   9170000   308.85892      722.71922     -39134.344      199.57582     -38934.768      79534.283      14.611176    
   9171000   295.72331      1347.5326     -39130.192      191.08797     -38939.104      79543.195      14.609538    
   9172000   303.78975      476.97346     -39130.251      196.30027     -38933.951      79549.104      14.608453    
   9173000   303.87228      1843.0168     -39132.392      196.35359     -38936.039      79504.675      14.616617    
   9174000   301.21613      1910.0141     -39133.43       194.63727     -38938.793      79508.374      14.615937    
   9175000   303.22492     -30.068743     -39129.511      195.93529     -38933.576      79570.847      14.604462    
   9176000   299.66879      285.7007      -39133.06       193.63742     -38939.423      79552.477      14.607834    
   9177000   296.32461      955.21768     -39132.609      191.47651     -38941.132      79540.148      14.610098    
   9178000   298.62548      2112.9269     -39130.381      192.96326     -38937.418      79500.484      14.617387    
   9179000   296.22482     -1201.8617     -39136.618      191.41203     -38945.206      79573.447      14.603984    
   9180000   300.15772     -269.67789     -39130.147      193.95335     -38936.193      79575.558      14.603597    
   9181000   291.81165     -402.66249     -39132.187      188.56036     -38943.627      79575.23       14.603657    
   9182000   303.13391      924.5995      -39135.722      195.87648     -38939.846      79509.482      14.615733    
   9183000   297.04315     -20.225122     -39130.506      191.94081     -38938.565      79571.089      14.604417    
   9184000   291.04287      668.06965     -39130.819      188.06359     -38942.755      79545.237      14.609164    
   9185000   305.77397      2754.7785     -39133.71       197.58241     -38936.128      79492.468      14.618861    
   9186000   299.22644     -1496.9402     -39133.11       193.35159     -38939.758      79598.265      14.599431    
   9187000   303.98627      131.78486     -39134.236      196.42725     -38937.808      79547.737      14.608704    
   9188000   299.10983      1141.3397     -39131.365      193.27624     -38938.089      79549.036      14.608466    
   9189000   303.67642      216.04734     -39135.515      196.22704     -38939.288      79540.761      14.609986    
   9190000   302.97772      2195.8428     -39136.4        195.77555     -38940.624      79492.57       14.618843    
   9191000   301.67003     -1252.5666     -39129.013      194.93057     -38934.082      79609.018      14.597459    
   9192000   301.00626     -596.24728     -39132.225      194.50166     -38937.723      79590.126      14.600924    
   9193000   297.03135      587.57573     -39136.032      191.93318     -38944.099      79533.448      14.611329    
   9194000   303.82239      2419.8421     -39132.268      196.32136     -38935.947      79505.086      14.616541    
   9195000   302.11329     -134.84904     -39134.85       195.21699     -38939.633      79561.507      14.606176    
   9196000   296.80229      1326.7195     -39131.944      191.78517     -38940.158      79532.716      14.611463    
   9197000   298.69558     -763.98741     -39129.841      193.00856     -38936.832      79603.798      14.598416    
   9198000   294.90958     -901.21046     -39132.667      190.56216     -38942.105      79581.011      14.602596    
   9199000   303.56201     -1299.0149     -39131.859      196.15311     -38935.706      79606.35       14.597948    
   9200000   297.09822     -402.73465     -39135.006      191.97639     -38943.03       79560.631      14.606337    
Loop time of 524.18 on 40 procs for 1000000 steps with 5000 atoms

Performance: 164.829 ns/day, 0.146 hours/ns, 1907.742 timesteps/s, 9.539 Matom-step/s
93.0% CPU use with 40 MPI tasks x 1 OpenMP threads

MPI task timing breakdown:
Section |  min time  |  avg time  |  max time  |%varavg| %total
---------------------------------------------------------------
Pair    | 299.91     | 310.58     | 321.49     |  33.2 | 59.25
Neigh   | 0          | 0          | 0          |   0.0 |  0.00
Comm    | 128.93     | 140.69     | 152.59     |  51.6 | 26.84
Output  | 0.082398   | 0.11765    | 0.33517    |  11.8 |  0.02
Modify  | 55.369     | 59.253     | 63.666     |  27.6 | 11.30
Other   |            | 13.54      |            |       |  2.58

Nlocal:            125 ave         135 max         117 min
Histogram: 4 6 2 7 3 5 6 3 3 1
Nghost:           1142 ave        1150 max        1132 min
Histogram: 1 3 3 6 4 4 7 2 6 4
Neighs:        6997.75 ave        7423 max        6521 min
Histogram: 3 3 4 3 5 7 3 2 6 4

Total # of neighbors = 279910
Ave neighs/atom = 55.982
Neighbor list builds = 0
Dangerous builds = 0
	unfix           ffinal


# ----- FINAL OUTPUT -----
	write_data      annealed_W-Mo.data
System init for write_data ...




Total wall time: 1:25:48
