LAMMPS data file via write_data, version 2 Aug 2023, timestep = 9200000, units = metal

5000 atoms
2 atom types

-0.019896568845373608 31.66989656530516 xlo xhi
-0.019896568845373608 31.66989656530516 ylo yhi
-0.04974142203640497 79.17474142201287 zlo zhi

Atom Type Labels

1 W
2 Mo

Masses

1 183.85
2 95.94

Atoms # atomic

223 1 3.1158834902038426 3.1389670308426125 3.165524537781818 0 0 0
2 2 1.478478149107881 1.6179985974990878 1.5581320892722774 0 0 0
807 2 9.509341614705034 0.03174222374782687 12.681667501143439 0 0 0
851 2 15.807998955431133 6.343118027311386 12.621443944208544 0 0 0
4 1 4.723690375727829 1.546723450058908 1.4901356453719885 0 0 0
225 1 6.261007821565573 3.10195267823382 3.1614653512210995 0 0 0
6 2 7.844309486777674 1.5310389612729274 1.4679716249692418 0 0 0
205 1 6.240887952854976 -0.010803625813422467 3.074563875678297 0 0 0
605 1 6.318396780148425 -0.018492469029546044 9.507268135958306 0 0 0
227 2 9.406632167528175 3.164372429131813 3.079248668570061 0 0 0
8 2 11.060046122992041 1.596153634960305 1.4965221088959857 0 0 0
651 1 15.81027116182049 6.224388589973486 9.483382187601924 0 0 0
229 2 12.6365735613459 3.124533463997419 3.1013076472992047 0 0 0
10 1 14.309424113599476 1.526513280526809 1.5352878052077927 0 0 0
231 1 15.788077973431722 3.0911918883041696 3.1838843500714042 0 0 0
631 2 15.789091755946359 3.0858334445632134 9.390194814525353 0 0 0
209 2 12.672382601904644 0.02736073604535269 3.1051785072994234 0 0 0
243 1 3.1405684603232245 6.289110892758531 3.0823121837878955 0 0 0
22 1 1.514068112760732 4.654526568950061 1.5852290410942405 0 0 0
42 2 1.5689223209749352 7.8126988949591505 1.549225640060686 0 0 0
245 1 6.229186472701489 6.283874813262667 3.1055943039670706 0 0 0
24 1 4.729950000951821 4.636011393303881 1.4956407945885772 0 0 0
411 2 15.7960157699243 0.0069513842227522105 6.376244965378957 0 0 0
26 2 7.95898455252059 4.756831662838445 1.4855969328543306 0 0 0
44 1 4.71196008965391 7.810323945758778 1.5287748788740174 0 0 0
247 1 9.457292264165762 6.315105872000712 3.0900211206976973 0 0 0
28 2 11.165694857138327 4.705617773417419 1.593285672796638 0 0 0
48 1 11.127034611732025 7.833208412979539 1.559976039977381 0 0 0
403 1 3.112783642143019 -0.01965985636488199 6.234525596381794 0 0 0
249 2 12.675202905369542 6.259841201333786 3.119027009901687 0 0 0
30 1 14.256288211236912 4.698542785785386 1.5291099819393685 0 0 0
251 2 15.809188444778172 6.26374268346975 3.116903336238554 0 0 0
49 1 12.680257312912138 6.299003967466552 -0.012129172287209597 0 0 0
849 1 12.592405746235974 6.30599013094844 12.642562046871667 0 0 0
421 2 0.026157112258694694 3.179995792183437 6.344280902630326 0 0 0
202 2 1.4872747084703626 1.4819750078615554 4.712629882247879 0 0 0
423 1 3.2319469993544607 3.2004051634506574 6.283217541325349 0 0 0
402 1 1.632178639912593 1.550936094664672 7.861549434432671 0 0 0
204 1 4.68741703035071 1.5451522359214789 4.681933997714729 0 0 0
425 2 6.343709628764482 3.1189799492936414 6.29743769194681 0 0 0
206 2 7.943343094171188 1.569210056995076 4.648592733242309 0 0 0
405 1 6.290304955794137 0.04910802772740942 6.238963549514951 0 0 0
407 1 9.415041650343378 0.06725355067959006 6.2786662961667306 0 0 0
208 1 11.14501144521068 1.553114984812661 4.682623946806994 0 0 0
427 2 9.39163337345017 3.0773544458284987 6.341201822412425 0 0 0
408 1 11.048421016793004 1.490924351170392 7.954490129940012 0 0 0
431 1 15.766263465660844 3.158072918599998 6.264200116350009 0 0 0
210 2 14.291341749363566 1.5209528589634718 4.801160978596496 0 0 0
429 1 12.578598888112925 3.0904636121758857 6.3082849209660825 0 0 0
410 1 14.199590732390181 1.592559183993189 7.83618906790716 0 0 0
222 1 1.6027075433824778 4.742210472850954 4.8141457807326775 0 0 0
443 1 3.140489855245691 6.404737604626952 6.287922937237181 0 0 0
830 1 14.20050382058131 4.827273751950567 14.207230227180704 0 0 0
442 2 1.5037613905999847 7.875464267646209 7.893044528706798 0 0 0
224 1 4.735588545029931 4.7471308971812345 4.701248885302165 0 0 0
445 2 6.321933073859698 6.432647859899821 6.346678423677964 0 0 0
424 1 4.711343042968944 4.746270447373096 7.811287422642525 0 0 0
426 1 7.758811309970947 4.752761755164171 7.819425342217989 0 0 0
226 1 7.90546492759616 4.6994884828275 4.662835526442897 0 0 0
228 2 11.017208128791255 4.778541221238928 4.7654595022429795 0 0 0
447 1 9.441301189245303 6.324003193031091 6.2616889629245245 0 0 0
428 1 10.980186529627508 4.697566202555965 7.832812346897115 0 0 0
448 1 11.061922060606204 7.872427581015693 7.8596297333513405 0 0 0
451 2 15.6821381553068 6.345855354567534 6.272723018535072 0 0 0
230 2 14.136484505248074 4.7379253666989145 4.725898659697616 0 0 0
449 1 12.637800872892221 6.34357021098416 6.270302325826308 0 0 0
430 1 14.17420422790663 4.714465468507911 7.8848376623246414 0 0 0
847 2 9.426351843194864 6.379208744463698 12.638710298809585 0 0 0
621 2 0.022191690569668757 3.1771745077328704 9.49267370571692 0 0 0
623 1 3.1882028932307462 3.110588225888794 9.475993639698135 0 0 0
602 1 1.587741040468145 1.5753616613808936 11.066985771728843 0 0 0
404 1 4.701004450842279 1.4856759523680487 7.956364381510067 0 0 0
406 1 7.856171290842601 1.5626336246383314 7.987467628240317 0 0 0
625 1 6.265493106180131 3.1694746638045483 9.450527274685463 0 0 0
604 2 4.794736835863089 1.611811467514424 11.040447764540554 0 0 0
606 2 7.88540078497768 1.5298137798617035 11.137450101008495 0 0 0
824 2 4.732926094186347 4.687592677186109 14.301727125627416 0 0 0
627 1 9.507837999595397 3.114960905739966 9.579213529370673 0 0 0
608 1 11.057034601238641 1.577304522224418 11.056247623156366 0 0 0
828 1 11.035886974008218 4.775926374834373 14.239956669432818 0 0 0
609 1 12.695305448818992 0.06642115845123168 9.518860440432949 0 0 0
629 2 12.585727436270501 3.1700895890567176 9.467983892847158 0 0 0
610 2 14.227417634874323 1.60709811407905 11.118356700817353 0 0 0
641 1 -0.018717574619520658 6.243871908862679 9.512490813402673 0 0 0
422 2 1.5996155400660639 4.7134384094529365 7.836417364428091 0 0 0
643 2 3.177628702704791 6.29169089758662 9.56457066322262 0 0 0
622 1 1.566878210696442 4.698518118439466 11.007830980552635 0 0 0
642 2 1.5469617351852805 7.842231949608672 11.054202960587732 0 0 0
645 1 6.182639410003303 6.366164778627038 9.473950000322187 0 0 0
624 1 4.790397409211006 4.6982340313529445 11.014576115215997 0 0 0
850 1 14.1355360151867 7.86460060870928 14.199152565598604 0 0 0
822 1 1.5966344746283712 4.774581210063764 14.212102527585554 0 0 0
843 2 3.0447846046534233 6.244080909734836 12.62542883565841 0 0 0
626 2 7.852693107997613 4.6576636719301625 11.05574511451317 0 0 0
647 1 9.415771640353041 6.3643314743683 9.42650057302629 0 0 0
628 2 11.020841140704636 4.723194629911687 10.973298503655336 0 0 0
649 2 12.645243840414702 6.32554173911063 9.424355661504249 0 0 0
630 2 14.281221521694729 4.734622175671311 11.06482072106674 0 0 0
826 1 7.828084583784547 4.773596443997325 14.194887001808064 0 0 0
823 2 3.088515478748564 3.181833408327696 12.56240328515462 0 0 0
802 2 1.5368033449436371 1.5247291681304913 14.195768928734998 0 0 0
848 1 10.96232795838549 7.880359887468144 14.23950850120479 0 0 0
804 1 4.743577501285862 1.4617366042223547 14.27361550465917 0 0 0
825 1 6.250039368946226 3.0565280351251056 12.607195253917679 0 0 0
806 2 7.861706113734618 1.563845192759425 14.211739806230801 0 0 0
808 1 10.969395657590495 1.615606709452871 14.293461242716251 0 0 0
827 1 9.471195299440769 3.2647966540158277 12.708774078104836 0 0 0
831 1 15.736424009940087 3.188468914335838 12.671822854209768 0 0 0
809 1 12.616114011772515 0.054037331145622675 12.607439901716596 0 0 0
846 2 7.912414792442147 7.880911942377871 14.160370723559197 0 0 0
810 1 14.119927703303553 1.6298918071617028 14.225155249889239 0 0 0
829 1 12.576676644705389 3.1528547283076334 12.69327862406289 0 0 0
1047 2 9.39510428417855 6.316932043937711 15.743013388816852 0 0 0
845 2 6.350297607038201 6.354559494578422 12.564818896782556 0 0 0
50 1 14.246639724399007 7.877311334491059 1.5093834086316498 0 0 0
242 2 1.5749949374223682 7.8767675493160585 4.703021841000233 0 0 0
246 2 7.885713887057829 7.849371784379904 4.682261554710498 0 0 0
244 1 4.746584438154512 7.894379090918664 4.693272242175504 0 0 0
248 1 10.996135968688833 7.88731858654743 4.662701835446425 0 0 0
648 1 11.019316953921098 7.844362437932186 11.100837135632371 0 0 0
650 2 14.233000651378871 7.89896930904844 10.962881763238215 0 0 0
844 1 4.674600963757822 7.799657023055269 14.238191761850253 0 0 0
1051 2 15.764222153634364 6.345813928432643 15.740658464352876 0 0 0
23 1 3.0587908888024233 3.057793461580143 -0.041096309402391284 0 0 0
43 1 3.0516640124532453 6.276441852092506 -0.04560468131957407 0 0 0
1002 2 1.545974108304169 1.5842447319929063 17.37918875539289 0 0 0
1223 1 3.1697216851287315 3.151286299392083 19.113072111152384 0 0 0
1004 2 4.72455557409098 1.5176444043338284 17.41139535291896 0 0 0
1225 2 6.287164466463738 3.1177155291970626 18.96247087629788 0 0 0
1006 2 7.921374501511955 1.6113431961589404 17.397946984207778 0 0 0
1621 2 0.021292268193519703 3.166665390098609 25.42638070661335 0 0 0
1611 1 15.79630319763536 0.021487948330082815 25.371920307608196 0 0 0
1025 2 6.331585509337715 3.1641367674909318 15.795886533965513 0 0 0
1227 2 9.509724956664954 3.2248635699963204 19.052954747402374 0 0 0
1008 1 11.147957633729753 1.6541140340601452 17.38512616936218 0 0 0
1027 2 9.458194499462305 3.124524425420271 15.855537276132386 0 0 0
1010 2 14.364664939389133 1.5563993618546998 17.404334571748976 0 0 0
1229 2 12.563905728727267 3.24524716623896 18.992544958347846 0 0 0
1431 2 15.817963498076312 3.20398373567973 22.20487720067915 0 0 0
1243 1 3.1886997513014266 6.233186521809389 18.976915873975454 0 0 0
1022 2 1.538670061827219 4.6928567997958535 17.444991168453043 0 0 0
1041 2 0.011330692838081663 6.318690485426496 15.85189200934355 0 0 0
1841 1 0.01524315760484285 6.298531233288272 28.462920768395918 0 0 0
1024 2 4.83804659895505 4.7324609077791875 17.31197209502615 0 0 0
1245 2 6.408513320248488 6.401038286532164 18.96834852873595 0 0 0
1044 1 4.714556047655159 7.8848120924163005 17.467486330876504 0 0 0
1045 2 6.24073186735148 6.313471813600703 15.835449263413917 0 0 0
1026 1 7.868218569972843 4.666105376595059 17.370027560264393 0 0 0
1247 2 9.531119454238379 6.2464756729267235 18.92827012374272 0 0 0
1028 1 11.050283014136461 4.699515257243796 17.345020123489828 0 0 0
1030 1 14.230257012660552 4.696801672210306 17.456078866101024 0 0 0
1249 2 12.56880461635701 6.374871376919741 18.985149635037526 0 0 0
1251 1 15.74195421651904 6.353718657168931 18.93803541116117 0 0 0
1423 2 3.2042503179328077 3.184179334879605 22.299484745971625 0 0 0
1202 2 1.5111957370301248 1.57831501145764 20.503218063441274 0 0 0
1402 2 1.6190368441054905 1.5993368859804753 23.730917833824975 0 0 0
1204 2 4.745663197277169 1.533352538221024 20.522905394999878 0 0 0
1425 1 6.280156169119685 3.073972915168861 22.18637390486722 0 0 0
1206 2 7.847207610131518 1.5095559142943848 20.545878083143933 0 0 0
1406 2 7.962022078670797 1.5637405339304982 23.7025192851324 0 0 0
1407 2 9.501650470689574 -0.003562049956016878 22.174311908355453 0 0 0
1427 1 9.522569789028994 3.068684103841046 22.16935335128531 0 0 0
1208 2 11.052445646495409 1.5523447712464613 20.536469244332437 0 0 0
1408 2 11.119947296301087 1.6234574173481426 23.757590560150405 0 0 0
1803 2 3.168207682127101 0.09129188740619298 28.51384340652754 0 0 0
1429 1 12.618305378368303 3.2131467607121906 22.125951048060358 0 0 0
1210 2 14.159634575483373 1.5652934600412032 20.49962416968922 0 0 0
1411 2 15.725419305498008 -0.008125417994748073 22.1415183342801 0 0 0
2009 2 12.590675832404443 0.009528264195296288 31.607574990795758 0 0 0
1443 2 3.069911045881155 6.299208162825788 22.173697181005206 0 0 0
1222 2 1.6038655009605944 4.732371252322315 20.613596890076714 0 0 0
1445 2 6.247611761265718 6.348485867675793 22.221212661304573 0 0 0
1224 2 4.725957143106943 4.729305952353733 20.578397317283596 0 0 0
1424 1 4.712810688700017 4.696125269446976 23.766221643713283 0 0 0
1426 1 7.858121795661415 4.767004206321719 23.656792650697902 0 0 0
1231 2 15.736161887731905 3.159572195840831 18.96981532138624 0 0 0
1244 2 4.729792331669555 7.860467542589645 20.625008277295663 0 0 0
1226 2 7.873278683689349 4.694264914497012 20.56010339502745 0 0 0
1447 1 9.414150086269844 6.399440320427195 22.13575341566966 0 0 0
1228 1 11.011106767806995 4.786714233607027 20.62306175634806 0 0 0
1451 1 15.806759234587217 6.388949756535276 22.200858504302566 0 0 0
1449 2 12.657749691943145 6.396048576068722 22.11857145751341 0 0 0
1230 2 14.146630133376789 4.806661175602938 20.550657734604904 0 0 0
1623 1 3.113203140905541 3.1101386570265968 25.336765400315556 0 0 0
1602 1 1.5912568255010184 1.546291589275978 26.900216361069926 0 0 0
1207 1 9.453237880543497 0.009830968175499777 18.94146636919163 0 0 0
1404 2 4.7133156921039925 1.447982224676198 23.692680754240733 0 0 0
1604 1 4.783465579067205 1.524951552175879 26.939069865570094 0 0 0
1625 2 6.3145839002144095 3.1170876287876608 25.34930890574863 0 0 0
1607 2 9.36469913443512 -0.019446257087069995 25.352279402831183 0 0 0
1606 1 7.86128867668237 1.5153469495036627 26.887024996424604 0 0 0
1627 2 9.447492449804738 3.1921946304891224 25.181636013633835 0 0 0
1608 1 10.956647953388648 1.5714445657283402 26.82066438853661 0 0 0
1631 2 15.810846545871293 3.14473806424428 25.373750510760292 0 0 0
2047 2 9.439018881591739 6.33896794563671 31.612720180904034 0 0 0
1410 1 14.23182869845367 1.566203661477014 23.74965813355329 0 0 0
1610 2 14.222150941312247 1.6223991521997523 26.87478031958634 0 0 0
1629 2 12.591470570432696 3.188317986445819 25.31119560378094 0 0 0
1641 2 -0.01831719487130141 6.251791097484001 25.290089711431946 0 0 0
1422 2 1.535753576597326 4.666806134632628 23.819543491774933 0 0 0
1643 2 3.198192790959599 6.298352294266066 25.346444776909152 0 0 0
1622 2 1.4982483592706075 4.655292924655142 27.01503332077887 0 0 0
1442 2 1.6797899915442867 7.89409452993765 23.734932476237717 0 0 0
1645 1 6.3002221946087404 6.3044834515303005 25.314374679239684 0 0 0
1624 1 4.701643450404432 4.694225770692342 26.9263170551841 0 0 0
1646 2 7.895784792155834 7.8798279637557425 27.031782947562988 0 0 0
1428 2 11.075871587399165 4.835698982057404 23.716866375787404 0 0 0
1626 1 7.9281771102364065 4.718203999804921 26.891944993508684 0 0 0
1647 1 9.428865541669868 6.376572701813271 25.35056939778035 0 0 0
1628 2 11.098790447598299 4.716123058393158 26.92444785860312 0 0 0
1847 1 9.514606392058026 6.326561564790098 28.476834811720682 0 0 0
1430 2 14.217187407769062 4.761461245451224 23.781573159988508 0 0 0
1851 1 15.804931804214895 6.368081734801271 28.570844548797638 0 0 0
1630 2 14.366007726071773 4.814107382373904 26.96411830532601 0 0 0
1649 2 12.657048396951085 6.292512251642138 25.361512084348437 0 0 0
1830 1 14.216576243576007 4.7475609885370895 29.999350570977636 0 0 0
1828 2 11.042329285358107 4.7342797028005865 30.051532590678146 0 0 0
1802 2 1.6799929691166782 1.4836608092156924 30.182409547796127 0 0 0
1823 2 3.106877887895054 3.2444581508803445 28.51204430891189 0 0 0
1203 2 3.0576660389842902 0.03736883028099669 19.008193271469306 0 0 0
1825 1 6.293049930327763 3.1196329479733533 28.490216545919353 0 0 0
1804 2 4.753902912022967 1.6324902236444994 30.11287182748988 0 0 0
1201 1 -0.011177425500557343 0.03439924965443453 18.972810982456952 0 0 0
1806 1 7.892909184283275 1.5882427633682787 30.139661576280584 0 0 0
1827 1 9.5508969334468 3.130678214568422 28.47813233138341 0 0 0
1808 1 11.046405186984282 1.5923185874449592 30.034390693884387 0 0 0
1807 1 9.521916547513015 0.041609370227505035 28.502714538007666 0 0 0
2027 1 9.498378448328591 3.1946701161710296 31.62589672868597 0 0 0
1849 2 12.798045519156783 6.326747160445297 28.449715691489153 0 0 0
1829 2 12.634241637520857 3.1699388771251464 28.47135081329177 0 0 0
1810 1 14.306531198392307 1.6085732381583069 30.10351413677795 0 0 0
1809 1 12.670593812756044 0.02165757977847809 28.496390115808733 0 0 0
1822 1 1.5386414586217567 4.732327476094969 30.130963955732103 0 0 0
1843 2 3.1907217747442047 6.253630508334629 28.473704902802726 0 0 0
1826 2 7.9541103047357105 4.720824899418246 30.001833581683403 0 0 0
1824 2 4.778136430040543 4.689878324577095 30.152925582458185 0 0 0
1845 1 6.276423114259663 6.286653169195356 28.51414688546073 0 0 0
1046 1 7.899063323931507 7.858245937995541 17.41297354269374 0 0 0
1048 1 11.088065120465908 7.873436516131558 17.336046143503044 0 0 0
1242 1 1.5261664233109244 7.8826104732924644 20.616543492180867 0 0 0
1246 2 7.8285894494254 7.849765726846426 20.692034948434042 0 0 0
1644 2 4.754065109170549 7.858872789465775 26.869381812331326 0 0 0
1648 2 11.037535657508895 7.867489822654727 26.860487601359075 0 0 0
1846 1 7.873476118650909 7.883069734768462 30.07258664491042 0 0 0
1848 1 11.080717563988518 7.810087691885705 30.070601261958526 0 0 0
2029 2 12.6217032361923 3.1906510456693757 31.600657877667793 0 0 0
1049 2 12.58802094854563 6.261043662679031 15.859107297083634 0 0 0
1003 1 3.121672094010259 0.009348296008617751 15.888303724390685 0 0 0
1043 2 3.139119564145173 6.244970058235004 15.874124368901994 0 0 0
1009 2 12.55556222199625 0.04016263799256592 15.805759116207266 0 0 0
1023 1 3.122737097358715 3.2023373248276097 15.839897466407203 0 0 0
1029 2 12.728332751469729 3.19447416413418 15.822505318320449 0 0 0
2002 2 1.5457500119072392 1.5187475503310914 33.249503179898696 0 0 0
2223 1 3.0320747231331007 3.173838982050211 34.82133247289397 0 0 0
2621 1 0.011468030883357017 3.15103490799665 41.09146607717299 0 0 0
2004 2 4.746651984752033 1.6291919591292612 33.22375508620003 0 0 0
2225 2 6.315103501971397 3.246434588038036 34.811394855684675 0 0 0
2006 1 7.862049608908554 1.5217163028073866 33.297274883628624 0 0 0
2205 2 6.387560651967282 -0.019111666081116033 34.8696821685432 0 0 0
2631 2 15.787071309536461 3.1517930688692113 41.08292047563289 0 0 0
2008 1 11.03983598660591 1.605735910383047 33.24808150381816 0 0 0
2227 2 9.458042142912412 3.14145917604456 34.74068649634341 0 0 0
2010 2 14.189525862879785 1.6163318948798693 33.239768063538406 0 0 0
2229 1 12.625801495171652 3.2302917123568275 34.80738916570586 0 0 0
2231 1 15.799111115391199 3.1930254938514264 34.820527318661796 0 0 0
2805 2 6.351513526823873 0.053280782247320246 44.27871160653621 0 0 0
2031 1 15.785500298556375 3.1681255514664253 31.66680434270394 0 0 0
2609 2 12.66632094434939 0.04098561284043001 41.205370747917925 0 0 0
2022 2 1.6034846479868585 4.779152296075391 33.24006678688909 0 0 0
2243 2 3.157483342533105 6.36500552990717 34.84100435259681 0 0 0
2421 2 0.03511409913775054 3.1960070227538457 37.93857228520619 0 0 0
2043 1 3.1194181940620616 6.359617330208538 31.708004062179764 0 0 0
2024 2 4.714506822933352 4.788185258706641 33.254739613250564 0 0 0
2245 2 6.329031010915452 6.328944314054544 34.909188170676686 0 0 0
2026 1 7.857886240865521 4.752893201101492 33.19477949530736 0 0 0
2045 2 6.320717346913944 6.354168485875882 31.67601395872281 0 0 0
2028 2 11.087329349978194 4.766362254180383 33.2027038107033 0 0 0
2247 2 9.49861718961361 6.216192882664007 34.827306063533406 0 0 0
2251 2 15.80550303028665 6.275507357572079 34.79421004780345 0 0 0
2030 1 14.196957583109034 4.719127092473625 33.24693615878944 0 0 0
2249 2 12.721173129999146 6.364599430711172 34.89383244649482 0 0 0
2241 1 -0.007083915040382749 6.30795878885371 34.79792193786842 0 0 0
2423 1 3.158612433447795 3.2441466081969796 38.0360466183814 0 0 0
2202 1 1.6196134165484821 1.5652252021257986 36.4254518220101 0 0 0
2402 1 1.6121965147871375 1.6319613461360807 39.60403655206786 0 0 0
2849 2 12.653302179706786 6.263817937411475 44.38773324763615 0 0 0
2204 2 4.707480045789156 1.4928008558800603 36.3605243415104 0 0 0
2425 1 6.363417991469381 3.0953740430637597 37.94594957545267 0 0 0
2021 1 0.06561895090607806 3.1110838444944884 31.735748451989913 0 0 0
2206 2 7.95003039636764 1.485815536889669 36.451632302058115 0 0 0
2406 1 7.961718855784995 1.5965546851633228 39.57740352737598 0 0 0
2427 2 9.480248812053658 3.1783949326013285 38.04358103048849 0 0 0
2208 2 11.182678004136177 1.5204611361191938 36.41237727627767 0 0 0
2408 1 11.009640078755586 1.581170452361493 39.58161035661878 0 0 0
2409 1 12.6349785362342 0.010360209476369276 38.044607455254955 0 0 0
2431 2 15.810374535846275 3.2100485288489717 37.96094261634156 0 0 0
2210 1 14.273045101215581 1.5210017883104487 36.3819079057076 0 0 0
2429 2 12.66587532448431 3.2281081180688185 38.010288631602414 0 0 0
2410 2 14.188866853302306 1.6371002837385382 39.515746128707555 0 0 0
2830 1 14.279562441386586 4.678042494823633 45.89055901674688 0 0 0
2443 1 3.1703008619915094 6.424782139770034 37.93922829557198 0 0 0
2222 1 1.504646809215556 4.847242214913296 36.34772688810038 0 0 0
2001 2 0.0027388273759783033 -0.009512830154715365 31.689340519191436 0 0 0
2445 2 6.306773292595316 6.445704124164861 37.96824267578533 0 0 0
2224 1 4.727331502815249 4.7839712310778495 36.33944743571631 0 0 0
2246 1 7.913448593872224 7.893613814359809 36.40188476909428 0 0 0
2226 2 7.891698492110053 4.7103832993957475 36.29552125974174 0 0 0
2426 2 7.877573699662025 4.739677467704686 39.47045185728063 0 0 0
2228 2 11.076047214189376 4.705789971679514 36.46061403587798 0 0 0
2447 2 9.565845849950977 6.326848914941157 37.999818809038246 0 0 0
2248 1 11.08302175192226 7.84007295827783 36.429818208833275 0 0 0
2428 1 11.091684715732525 4.742042037148825 39.593515608589016 0 0 0
2848 1 11.074048399214217 7.8359882332879724 45.896076467831435 0 0 0
2449 1 12.741108218786753 6.3955896176367455 38.01698495444028 0 0 0
2230 2 14.283504721733047 4.719698544017521 36.409903857394056 0 0 0
2430 2 14.31552442857176 4.755178482716001 39.57497031569491 0 0 0
2847 2 9.509061351078977 6.364416534767064 44.28354201446926 0 0 0
2602 1 1.5913533904174397 1.6069137538774247 42.713974175258905 0 0 0
2623 1 3.216171692272336 3.199086085776663 41.106848730766814 0 0 0
2404 2 4.767683736930173 1.6039614229283778 39.49631477967271 0 0 0
2625 1 6.365727979890926 3.0228593410856415 41.1737055739419 0 0 0
2604 1 4.72756203246712 1.635893982560254 42.681484913764976 0 0 0
2606 1 7.993033487099055 1.5457697801496166 42.71274376909971 0 0 0
2627 1 9.579414774598105 3.2015784461909584 41.16186911018604 0 0 0
2608 1 11.128312105534462 1.5478724566310373 42.73392369332567 0 0 0
2629 2 12.71070228778287 3.2237250700050377 41.12377348101584 0 0 0
2610 1 14.255571841293795 1.6045171931158815 42.706011696793276 0 0 0
2826 1 7.924188387580205 4.75976036826548 45.83666072217197 0 0 0
2422 2 1.5524595314792342 4.822255958047643 39.47098717817045 0 0 0
2643 2 3.3052590763154677 6.308502209966572 41.063723644726885 0 0 0
2622 1 1.5797869421516515 4.737498983330203 42.73072876118215 0 0 0
2424 1 4.811797951003855 4.7073696291559886 39.53951455598327 0 0 0
2645 1 6.369384103659028 6.25923955292966 41.155053163481725 0 0 0
2624 1 4.739927610504853 4.716719070452088 42.652778961391576 0 0 0
2845 1 6.362740228778727 6.369867813594369 44.33705362038172 0 0 0
2626 2 7.932925816566391 4.71101860575808 42.67903936604022 0 0 0
2647 1 9.57026634862115 6.3859966099848045 41.13232332534727 0 0 0
2628 1 11.1469885378063 4.6934754896335615 42.73333189605653 0 0 0
2649 1 12.741151534810546 6.317626925899087 41.18283722209608 0 0 0
2630 2 14.331292748954642 4.814902786048463 42.77128241591008 0 0 0
2801 1 0.11003211371066751 0.06065461944863702 44.397288601666055 0 0 0
2821 2 0.034509125005820436 3.1492374142631347 44.29551817374086 0 0 0
2802 2 1.6074277568459547 1.6046937243993245 45.98676749225788 0 0 0
2823 2 3.232784707532798 3.2684180227930923 44.32332569608524 0 0 0
2607 2 9.44482756776107 0.018677260848122046 41.15434285480715 0 0 0
2601 2 0.09591249519454544 0.052102733201664364 41.11195376937844 0 0 0
2403 1 3.116949651683726 -0.0018415188318670062 38.02504117340821 0 0 0
2803 1 3.261442193519703 0.11121774971821452 44.32285636824173 0 0 0
3025 2 6.2994431725167255 3.212945089392395 47.44420145642681 0 0 0
2804 2 4.761698498560636 1.6857708673931515 45.87467661383221 0 0 0
2825 1 6.372603018067259 3.155126534063602 44.29700221704499 0 0 0
2209 2 12.641334161903375 0.04382073749271598 34.76188604011114 0 0 0
2806 1 7.922491296526329 1.637883919476327 45.90337211584506 0 0 0
2808 2 11.122658878888354 1.6029422600504406 45.907984064263154 0 0 0
2827 1 9.555065670217804 3.117189029865117 44.28216777117594 0 0 0
2824 2 4.71068752303213 4.7983128171948195 45.85349121979162 0 0 0
3029 2 12.697509058146386 3.1199684742875173 47.35340457238728 0 0 0
2810 2 14.288373133993332 1.5136703132358398 45.823831516656355 0 0 0
2829 1 12.717723161600778 3.1462050121809324 44.29238214986733 0 0 0
2828 2 11.140661934671376 4.660327016793851 45.9003187347087 0 0 0
2843 1 3.1378628647120523 6.328775405576973 44.2651964359987 0 0 0
2822 1 1.5786782836114897 4.785176799356441 45.90708871709443 0 0 0
2007 1 9.434630960112973 0.03888560962458598 31.730312176253648 0 0 0
2044 1 4.758443124926174 7.893199901664577 33.279863704552966 0 0 0
2046 1 7.909553025056619 7.884911954061769 33.25441704879432 0 0 0
2448 2 11.186354054819681 7.851472971938631 39.59279740399161 0 0 0
2450 2 14.32899237703912 7.871227686677964 39.620750019602426 0 0 0
2648 1 11.153160666446881 7.829585999779815 42.696421911678506 0 0 0
2844 1 4.732274355678689 7.805941251817066 45.9044655845176 0 0 0
2809 2 12.618037903073738 0.00709290717687594 44.381690950693944 0 0 0
2207 2 9.50236231212409 0.009469765993088686 34.880791502083525 0 0 0
3043 2 3.125850709915337 6.417798927316715 47.460604693790195 0 0 0
3047 1 9.491173439419304 6.208814312493547 47.45584552754984 0 0 0
3041 2 0.04364135402110492 6.321595415583495 47.46168494571548 0 0 0
2041 1 -0.016765100564626323 6.462377139989875 31.643919511933618 0 0 0
2049 2 12.650939082495334 6.374295643248586 31.725275435516423 0 0 0
2023 1 3.1529183316013567 3.197240360732447 31.668372516623453 0 0 0
2025 2 6.32722074092334 3.1434707818726753 31.772053875451608 0 0 0
3002 2 1.5869873950808504 1.5891449950388248 49.09765953065091 0 0 0
3223 2 3.2268332827698143 3.161597679335126 50.61778183326402 0 0 0
3221 1 0.04750409036832008 3.1132039617849925 50.67967357901762 0 0 0
3004 2 4.8938485639016145 1.5759119454272297 49.08458661071203 0 0 0
3225 2 6.429932122970038 3.143105028774969 50.641054543238596 0 0 0
3006 2 8.003155098779873 1.6105065057059385 49.07806873227292 0 0 0
3008 1 11.142030600103467 1.5970721158148495 49.01782568458714 0 0 0
3227 1 9.62573572559808 3.166088705168393 50.70596939401954 0 0 0
3027 1 9.517982093123669 3.1570356386461924 47.515008748245435 0 0 0
3010 1 14.274151692296561 1.579875463353392 49.072931157768714 0 0 0
3229 1 12.65882620611958 3.2140203390006197 50.64916640995745 0 0 0
3022 1 1.5564915485564528 4.705926867964061 49.088517755681615 0 0 0
3243 2 3.191121122728791 6.240291135358936 50.65376409099166 0 0 0
4021 1 0.04767133643950672 3.053275739877348 63.303442668887456 0 0 0
3607 2 9.458359407207094 -0.010516030093896234 57.05579387999897 0 0 0
3024 1 4.7564960360212885 4.8066324311815825 49.06430452231724 0 0 0
3245 2 6.322517025980159 6.300723928577273 50.61445027932212 0 0 0
3026 1 7.98767809184897 4.65680533308114 49.072455428296195 0 0 0
3028 1 11.123439826735499 4.787794823891284 49.119657316250546 0 0 0
3247 1 9.54902714554282 6.37710835857444 50.66812168752317 0 0 0
3811 2 15.759073177325531 -0.009453944377853993 60.093038663959426 0 0 0
3605 1 6.326059548799313 0.039058904723880516 56.971438375155806 0 0 0
3030 1 14.368633077820654 4.787685590573789 49.03452817124398 0 0 0
3249 2 12.684355432185653 6.343164879646376 50.63328995679472 0 0 0
3849 2 12.667122224818977 6.245931946848002 60.092569542512656 0 0 0
3641 2 0.07875317083022537 6.335538796750738 56.992713859394705 0 0 0
3401 2 0.022480957520554214 0.019865299864246982 53.915488772963414 0 0 0
3202 2 1.5893872172062655 1.4796726924219736 52.272489971540566 0 0 0
3423 1 3.1640754691452013 3.1656288242332398 53.78943543258876 0 0 0
3402 1 1.6065332217596375 1.646453447192155 55.43173775809545 0 0 0
3204 2 4.772620349775793 1.5946825849810933 52.27934421841593 0 0 0
3425 2 6.2851989894851785 3.1896249827492253 53.817964334388215 0 0 0
3404 2 4.73774796792945 1.6838896883874195 55.463943149055844 0 0 0
3206 2 8.027855340254533 1.6086631163632643 52.34163773804755 0 0 0
3406 2 7.99292332975161 1.5699288584435527 55.457215253508195 0 0 0
3621 2 0.030695350750633565 3.1335563591506745 57.07605828427161 0 0 0
3427 1 9.542428683885603 3.172273070550346 53.891603710188924 0 0 0
3208 2 11.079562788918366 1.5690028619666678 52.23651439535959 0 0 0
3429 1 12.752909503956916 3.1971161553216945 53.79361991579672 0 0 0
3210 1 14.296638302108152 1.6945331238591566 52.23074760091944 0 0 0
3410 2 14.307875539997164 1.6875675379748292 55.454626081299274 0 0 0
3443 2 3.1707264845359084 6.254784129969162 53.68829276906924 0 0 0
3222 1 1.6322395466502093 4.675070902690049 52.21116987058592 0 0 0
3422 2 1.5920969692087306 4.774463305362866 55.49045990771958 0 0 0
3841 2 0.06760039118784533 6.299635411115206 60.20382462555294 0 0 0
3445 1 6.439092423653569 6.314968031459656 53.8099841462162 0 0 0
3224 2 4.804411866955796 4.715810790296824 52.176478261845126 0 0 0
3441 1 -0.0007405524006074415 6.330063551095351 53.72403059734564 0 0 0
3424 2 4.794103386716323 4.721900719637749 55.398611393348816 0 0 0
3444 2 4.7509721073858655 7.864419528227489 55.421793660432584 0 0 0
3226 2 7.943873374038341 4.714588653008903 52.31129595378879 0 0 0
3447 2 9.54136871232441 6.351695888979076 53.770259884076374 0 0 0
3228 1 11.11453690743855 4.748632867574309 52.24980427847801 0 0 0
3421 2 -0.0018409094669635806 3.2289424766964014 53.87179600870131 0 0 0
3246 1 7.928221213748948 7.899648848690914 52.238903690629265 0 0 0
3451 1 15.801760164293151 6.312933835682329 53.874620897776026 0 0 0
3449 2 12.687736225424244 6.299969910770406 53.82189293498955 0 0 0