

# Styles
	units        metal
	atom_style   atomic
	pair_style   eam/fs

# Neighbour list
	neighbor        2.0 bin
	neigh_modify    check yes


# Boundary conditions
	boundary p p p


# ----------------- Atom Definition Section -----------------

read_data "en_min_W-Mo.data"
Reading data file ...
  orthogonal box = (0.046127475 0.046127475 0.11531869) to (31.603873 31.603873 79.009681)
  2 by 4 by 5 MPI processor grid
  reading atom labelmap ...
  reading atoms ...
  5000 atoms
  reading velocities ...
  5000 velocities
  read_data CPU = 0.036 seconds

# ----------------- Settings Section -----------------

include "annealing.in.settings"
# ----- SETTINGS -----
# Forcefield
	pair_coeff * * W-Mo.eam.fs W Mo

# Collection of atoms
	group alloy type  1 2
5000 atoms in group alloy


# ----------------- Run Section -----------------

include "annealing.in.run"
# Thermo output
	compute msd all msd
	compute myRDF all rdf 50

	fix 1 all ave/time 500 1 500 c_myRDF[*] file RDF.txt mode vector

	thermo          1000
	thermo_style    custom step temp press pe ke etotal vol density c_msd[1] c_msd[2] c_msd[3]
	thermo_modify   flush yes

# Dump configuration
	dump            d1 all custom 50000 annealed_system.dump id type x y z xu yu zu vx vy vz
	dump_modify     d1 element W Mo


# ----- INITIAL EQUILIBRATION AT Ti -----
	velocity        all create ${Ti} 872392 dist gaussian
	velocity        all create 300 872392 dist gaussian
	fix             feq all npt temp ${Ti} ${Ti} ${tdamp} iso ${press} ${press} ${pdamp}
	fix             feq all npt temp 300 ${Ti} ${tdamp} iso ${press} ${press} ${pdamp}
	fix             feq all npt temp 300 300 ${tdamp} iso ${press} ${press} ${pdamp}
	fix             feq all npt temp 300 300 0.1 iso ${press} ${press} ${pdamp}
	fix             feq all npt temp 300 300 0.1 iso 1 ${press} ${pdamp}
	fix             feq all npt temp 300 300 0.1 iso 1 1 ${pdamp}
	fix             feq all npt temp 300 300 0.1 iso 1 1 1
	run             200000    # 200 ps
Neighbor list info ...
  update: every = 1 steps, delay = 0 steps, check = yes
  max neighbors/atom: 2000, page size: 100000
  master list distance cutoff = 7.3
  ghost atom cutoff = 7.3
  binsize = 3.65, bins = 9 9 22
  2 neighbor lists, perpetual/occasional/extra = 1 1 0
  (1) pair eam/fs, perpetual
      attributes: half, newton on
      pair build: half/bin/atomonly/newton
      stencil: half/bin/3d
      bin: standard
  (2) compute rdf, occasional, copy from (1)
      attributes: half, newton on
      pair build: copy
      stencil: none
      bin: none
Per MPI rank memory allocation (min/avg/max) = 4.088 | 4.092 | 4.097 Mbytes
   Step          Temp          Press          PotEng         KinEng         TotEng         Volume        Density        c_msd[1]       c_msd[2]       c_msd[3]   
         0   300            2635.34       -39329.129      193.85144     -39135.277      78570.207      14.790458      0              0              0            
      1000   312.26616      804.77991     -39125.83       201.77748     -38924.053      79563.077      14.605888      0.0044013358   0.0040096043   0.01244837   
      2000   295.64515      1312.4756     -39134.268      191.03746     -38943.231      79515.88       14.614557      0.0043336939   0.0038910486   0.011336341  
      3000   300.72769     -490.5344      -39131.136      194.32165     -38936.815      79579.766      14.602825      0.0044721748   0.0044895861   0.011941632  
      4000   300.67775      936.04927     -39133.568      194.28938     -38939.279      79533.423      14.611334      0.0043352439   0.0040667798   0.011848908  
      5000   295.09879      763.03877     -39131.768      190.68442     -38941.083      79533.584      14.611304      0.0043416412   0.0040809757   0.011463366  
      6000   302.7343      -227.06307     -39131.198      195.61826     -38935.58       79572.296      14.604196      0.0044748841   0.0043760272   0.012265816  
      7000   296.69069     -1252.6455     -39134.116      191.71306     -38942.403      79590.116      14.600926      0.0045047147   0.0045160262   0.012589648  
      8000   305.54073      1759.378      -39133.352      197.4317      -38935.92       79513.313      14.615029      0.0042412772   0.003984255    0.011184882  
      9000   297.91858      312.41809     -39131.963      192.50649     -38939.457      79544.756      14.609252      0.0041926926   0.0039376363   0.012013731  
     10000   301.11635      2157.6069     -39130.754      194.5728      -38936.181      79508.732      14.615871      0.0041318613   0.004315639    0.010728116  
     11000   302.84583      2470.9192     -39132.233      195.69033     -38936.543      79485.223      14.620194      0.0042055835   0.0040752768   0.010628597  
     12000   293.84332     -513.68185     -39132.88       189.87317     -38943.007      79569.761      14.604661      0.0042957312   0.0038562953   0.012591109  
     13000   296.50088     -790.14233     -39129.376      191.5904      -38937.785      79593.196      14.600361      0.0043141414   0.0041219893   0.012153819  
     14000   295.2786       54.627956     -39133.899      190.80061     -38943.098      79553.387      14.607667      0.0042040001   0.0044242441   0.011897567  
     15000   303.21156      2067.392      -39133.439      195.92666     -38937.512      79503.262      14.616877      0.0043999463   0.0038954435   0.011405164  
     16000   295.62929      348.38936     -39131.115      191.02721     -38940.088      79551.051      14.608096      0.0040988257   0.0038084765   0.011692334  
     17000   305.73048      1967.1544     -39132.81       197.55431     -38935.256      79508.445      14.615924      0.0042146394   0.003958904    0.010747902  
     18000   300.71611     -437.40287     -39133.594      194.31417     -38939.28       79583.207      14.602193      0.0046973303   0.0046105097   0.012609768  
     19000   302.64758      642.44781     -39129.641      195.56223     -38934.078      79556.548      14.607086      0.0042518643   0.0040289921   0.01226149   
     20000   301.50361     -1256.4514     -39131.701      194.82303     -38936.878      79601.39       14.598858      0.0043218322   0.0039840794   0.012333717  
     21000   295.66595     -209.93065     -39133.055      191.0509      -38942.004      79568.881      14.604822      0.004138573    0.0043340821   0.012417354  
     22000   303.172        355.81317     -39130.785      195.90109     -38934.884      79555.804      14.607223      0.0041897433   0.0043420657   0.012443936  
     23000   300.79191      857.47233     -39132.496      194.36315     -38938.133      79531.107      14.611759      0.004058574    0.0039343958   0.010714982  
     24000   296.92964      2694.8686     -39134.367      191.86746     -38942.499      79492.858      14.61879       0.0040229392   0.0035279387   0.010395618  
     25000   298.07302      462.19692     -39130.883      192.60628     -38938.276      79552.89       14.607758      0.0042476931   0.0042764167   0.01216172   
     26000   296.05955      441.80375     -39131.647      191.30524     -38940.342      79561.426      14.606191      0.004242427    0.0043146886   0.012157459  
     27000   305.36409      871.27011     -39128.851      197.31756     -38931.534      79560.123      14.60643       0.0043158716   0.0040538387   0.011887713  
     28000   299.10466     -709.40182     -39133.479      193.27289     -38940.206      79576.959      14.60334       0.0044507025   0.0040313728   0.012429207  
     29000   300.77545     -1671.1963     -39134.59       194.35251     -38940.238      79592.493      14.60049       0.0041877548   0.0043595631   0.013005568  
     30000   307.43249     -606.13261     -39136.209      198.6541      -38937.555      79572.061      14.604239      0.0041220652   0.0044175546   0.011998698  
     31000   299.81189     -1903.4082     -39134.148      193.72989     -38940.418      79599.088      14.59928       0.0043222213   0.0041915975   0.012637005  
     32000   297.55582      596.47084     -39130.982      192.27208     -38938.71       79554.772      14.607413      0.0042375716   0.0041317728   0.012840671  
     33000   295.43585     -538.19815     -39136.669      190.90221     -38945.767      79553.065      14.607726      0.0041141707   0.0040092353   0.01153931   
     34000   299.62283      380.37611     -39131.414      193.60772     -38937.806      79553.438      14.607657      0.0042575575   0.0042876266   0.011325681  
     35000   290.36695      1287.6725     -39135.44       187.62683     -38947.813      79515.865      14.61456       0.0042986648   0.0042498071   0.011789064  
     36000   301.29686     -1593.596      -39132.151      194.68944     -38937.461      79607.568      14.597725      0.0043855556   0.0041277827   0.012939569  
     37000   294.98126     -1373.2206     -39133.825      190.60847     -38943.217      79588.054      14.601304      0.0041472286   0.0042976814   0.011685635  
     38000   301.81134     -5160.9414     -39132.279      195.02188     -38937.257      79697.021      14.58134       0.0048553223   0.0048920479   0.014810817  
     39000   297.19247     -2462.0856     -39132.277      192.03729     -38940.24       79623.766      14.594755      0.0047471351   0.0042097762   0.013801446  
     40000   296.53086     -1134.8326     -39134.051      191.60978     -38942.441      79586.646      14.601562      0.0043526399   0.0040758767   0.012065219  
     41000   297.83165      516.69618     -39130.116      192.45031     -38937.665      79561.455      14.606186      0.0043597696   0.0045837643   0.011899648  
     42000   305.16081      2495.8215     -39135.15       197.18621     -38937.964      79464.586      14.623991      0.0045412129   0.003931133    0.011505291  
     43000   305.60518     -595.87345     -39130.689      197.47334     -38933.215      79582.186      14.602381      0.0043416244   0.0042220934   0.012565062  
     44000   297.51035      183.48939     -39132.027      192.2427      -38939.785      79568.395      14.604912      0.0041101053   0.0041582546   0.011353888  
     45000   301.40422     -1629.0698     -39129.523      194.75881     -38934.765      79617.077      14.595981      0.0047090848   0.0047407627   0.013689515  
     46000   300.34196     -451.5885      -39130.281      194.0724      -38936.209      79584.471      14.601961      0.0049257373   0.0044285499   0.013157003  
     47000   294.63266     -44.562937     -39132.917      190.38322     -38942.533      79564.182      14.605685      0.0041593255   0.003932122    0.011362273  
     48000   296.28444     -1304.9189     -39129.631      191.45055     -38938.181      79604.812      14.59823       0.0041668004   0.0044151981   0.012214926  
     49000   295.96829     -36.955783     -39133.545      191.24626     -38942.299      79559.155      14.606608      0.0046750177   0.0044066864   0.013089667  
     50000   300.47172     -539.46362     -39132.797      194.15625     -38938.641      79571.199      14.604397      0.004525829    0.0043314502   0.011720244  
     51000   294.19301      2055.1146     -39133.575      190.09913     -38943.476      79496.304      14.618156      0.0038443121   0.0041019442   0.0097293618 
     52000   303.10969     -781.57344     -39132.12       195.86084     -38936.259      79580.08       14.602767      0.0043472805   0.0044501386   0.013460153  
     53000   295.72832     -1000.4245     -39131.16       191.0912      -38940.069      79594.76       14.600074      0.004779056    0.0044204337   0.012988361  
     54000   299.54028     -501.46996     -39130.65       193.55438     -38937.096      79583.053      14.602222      0.0043198096   0.0042444339   0.011249794  
     55000   302.65443     -2057.5138     -39134.125      195.56666     -38938.558      79602.36       14.59868       0.0042050106   0.0044106139   0.012663018  
     56000   301.50195      1761.7271     -39130.491      194.82196     -38935.669      79524.071      14.613052      0.0046227469   0.0039581556   0.012672173  
     57000   295.87571      1081.5063     -39133.764      191.18644     -38942.578      79512.37       14.615202      0.0042110964   0.0038671556   0.010258803  
     58000   299.37424      1964.8286     -39128.598      193.44709     -38935.151      79515.07       14.614706      0.003992365    0.0040273553   0.010488172  
     59000   298.27154     -820.98695     -39134.273      192.73456     -38941.538      79589.414      14.601054      0.0046142836   0.0043458606   0.014062078  
     60000   302.83075     -1041.373      -39134.313      195.68059     -38938.632      79587.983      14.601317      0.0044082276   0.004393506    0.012409725  
     61000   302.76352      1024.9884     -39132.932      195.63715     -38937.295      79534.443      14.611146      0.004010958    0.004034713    0.010343275  
     62000   301.46041      263.87088     -39135.824      194.79511     -38941.029      79543.968      14.609396      0.0041305867   0.0040419725   0.012612756  
     63000   304.01482      1221.6773     -39130.753      196.4457      -38934.307      79527.415      14.612437      0.004651503    0.0042005699   0.012256243  
     64000   301.35264      1755.4658     -39133.905      194.72548     -38939.18       79508.317      14.615947      0.0041573389   0.0038303174   0.010176118  
     65000   305.83279      547.39934     -39133.745      197.62042     -38936.125      79543.524      14.609478      0.003916791    0.0039358872   0.011795583  
     66000   295.90045      2729.6245     -39132.47       191.20243     -38941.267      79483.657      14.620482      0.0045558169   0.0038361525   0.011566817  
     67000   298.09663      1148.7453     -39129.191      192.62154     -38936.57       79555.245      14.607326      0.0045961603   0.0041772501   0.011620922  
     68000   298.9783       177.61095     -39133.401      193.19125     -38940.209      79551.878      14.607944      0.0039289827   0.0040483544   0.011259606  
     69000   296.13271      400.06697     -39132.44       191.35251     -38941.087      79540.135      14.610101      0.0041784445   0.0039458248   0.012685361  
     70000   303.94299     -512.76536     -39129.972      196.39929     -38933.573      79592.692      14.600453      0.0050051051   0.0043165945   0.012939662  
     71000   299.2026      -920.06602     -39131.395      193.33618     -38938.059      79583.469      14.602145      0.004312494    0.0043029709   0.011071461  
     72000   297.98575      812.88253     -39132.189      192.54989     -38939.639      79534.681      14.611102      0.0040379643   0.0039797056   0.011752921  
     73000   301.27562      1926.0572     -39128.763      194.67571     -38934.087      79534.079      14.611213      0.0042861981   0.0041768648   0.01253607   
     74000   299.07367      1745.6083     -39134.597      193.25287     -38941.344      79491.627      14.619016      0.0043020664   0.0041805964   0.0099662016 
     75000   299.69346      1034.8003     -39128.789      193.65336     -38935.136      79549.428      14.608394      0.0042248196   0.0042175637   0.010840646  
     76000   297.30818     -1685.3456     -39132.051      192.11206     -38939.939      79596.931      14.599676      0.0041329453   0.0040431029   0.013806318  
     77000   301.97087     -474.92613     -39132.797      195.12496     -38937.672      79578.911      14.602982      0.0044520694   0.0044290193   0.012452959  
     78000   294.49031      179.42633     -39133.689      190.29124     -38943.398      79536.184      14.610826      0.004414543    0.0040289981   0.010023824  
     79000   298.42184     -148.31863     -39132.299      192.83168     -38939.468      79571.806      14.604286      0.0042072586   0.0040502036   0.012773799  
     80000   298.70344     -589.70128     -39132.071      193.01364     -38939.057      79573.887      14.603904      0.0043373527   0.0043127393   0.013047048  
     81000   296.00127     -487.14177     -39134.4        191.26758     -38943.133      79563.174      14.60587       0.0041755976   0.0041476341   0.010687295  
     82000   300.79028      1199.345      -39134.962      194.3621      -38940.599      79522.98       14.613252      0.0042535541   0.0038991677   0.011191506  
     83000   301.7824       988.94254     -39133.014      195.00318     -38938.011      79530.059      14.611952      0.0043550243   0.0038916907   0.012205589  
     84000   303.10635     -981.17989     -39134.954      195.85867     -38939.096      79570.843      14.604462      0.0042071844   0.0041467263   0.012118759  
     85000   306.65782     -1439.5684     -39133.36       198.15354     -38935.207      79603.901      14.598397      0.0040624952   0.0042138798   0.011781651  
     86000   298.51115      18.741801     -39132.019      192.88939     -38939.13       79551.966      14.607928      0.0039750914   0.0042775775   0.012819471  
     87000   301.93967     -702.95349     -39132.319      195.1048      -38937.215      79590.575      14.600842      0.0043422818   0.0040649389   0.013296605  
     88000   301.51731     -1062.9682     -39137.539      194.83188     -38942.707      79569.862      14.604642      0.0041084589   0.0040601126   0.010705534  
     89000   302.039       -107.57281     -39129.821      195.16898     -38934.652      79579.97       14.602787      0.0041705697   0.0042252515   0.012437966  
     90000   305.82427      406.75222     -39133.574      197.61491     -38935.96       79556.117      14.607166      0.0043404228   0.0041057676   0.012720261  
     91000   296.35775      173.99254     -39131.04       191.49792     -38939.542      79569.994      14.604618      0.004446627    0.0041698915   0.011626846  
     92000   301.90883      1291.2834     -39127.973      195.08487     -38932.888      79538.811      14.610344      0.0041648262   0.0040809532   0.010979191  
     93000   305.3225      -646.7071      -39134.296      197.29069     -38937.005      79582.196      14.602379      0.0042148445   0.004169103    0.013206202  
     94000   302.12946     -619.19186     -39133.072      195.22743     -38937.844      79569.418      14.604724      0.0045946693   0.0041293928   0.012585292  
     95000   304.5883       1388.8688     -39135.32       196.81627     -38938.503      79524.279      14.613014      0.0044304517   0.0038983526   0.010572747  
     96000   302.97922      2043.2113     -39137.195      195.77652     -38941.419      79482.762      14.620647      0.003698397    0.0040942663   0.011038703  
     97000   304.19742      2217.9891     -39133.175      196.56369     -38936.611      79501.561      14.617189      0.0041148964   0.0042737496   0.011439904  
     98000   302.69651     -1387.4159     -39129.04       195.59385     -38933.446      79606.518      14.597917      0.0047429741   0.0041174141   0.012206747  
     99000   298.73326      2585.5745     -39133.87       193.03291     -38940.837      79481.855      14.620813      0.0043686659   0.0037305472   0.01042518   
    100000   303.58307     -1235.8496     -39126.806      196.16672     -38930.64       79611.175      14.597064      0.0046739395   0.0046938505   0.013396829  
    101000   300.47166      989.99037     -39137.213      194.15621     -38943.057      79519.305      14.613928      0.0042058161   0.0042227522   0.011140962  
    102000   304.34775      303.08392     -39132.37       196.66083     -38935.709      79557.768      14.606862      0.0045002441   0.0041091592   0.011337765  
    103000   297.03459      871.45268     -39130.602      191.93528     -38938.667      79545.353      14.609142      0.0045704696   0.00400085     0.012016046  
    104000   305.49275      816.96964     -39134.972      197.4007      -38937.572      79536.634      14.610744      0.0042053502   0.0039995228   0.012225389  
    105000   296.33817      1930.724      -39132.72       191.48527     -38941.235      79504.465      14.616655      0.0040877377   0.0039845023   0.010282172  
    106000   305.94493     -308.23323     -39132.576      197.69289     -38934.884      79572.561      14.604147      0.0049514212   0.0040022956   0.012320333  
    107000   304.76753      1238.3197     -39134.931      196.93208     -38937.999      79518.465      14.614082      0.0042310575   0.0036662152   0.01196813   
    108000   293.35632      277.20085     -39134.813      189.55848     -38945.254      79541.753      14.609803      0.0040006675   0.0042580438   0.01059223   
    109000   298.53599      913.36901     -39129.73       192.90544     -38936.824      79536.699      14.610732      0.004310798    0.0043077603   0.011843707  
    110000   298.57151     -11.639037     -39133.879      192.92839     -38940.951      79547.061      14.608829      0.0045325871   0.003776585    0.012104261  
    111000   298.77106     -1968.6561     -39131.58       193.05733     -38938.523      79619.361      14.595563      0.0044935312   0.0042837424   0.012904186  
    112000   299.08015     -1653.3582     -39134.215      193.25706     -38940.958      79593.672      14.600273      0.0042514328   0.0045010446   0.012818054  
    113000   305.893       -547.69745     -39131.349      197.65933     -38933.689      79578.698      14.603021      0.0043383991   0.0042776511   0.012450107  
    114000   296.34972     -1723.9877     -39130.312      191.49273     -38938.819      79613.179      14.596696      0.0044418374   0.0039790964   0.013823275  
    115000   296.34429      107.82525     -39134.618      191.48923     -38943.129      79540.866      14.609966      0.0040698428   0.0043326015   0.011524452  
    116000   302.64693      812.14896     -39131.869      195.56181     -38936.307      79540.664      14.610004      0.004523164    0.0041827947   0.011930163  
    117000   298.09147     -1949.1457     -39132.534      192.6182      -38939.916      79612.059      14.596901      0.0045402216   0.004137639    0.013508694  
    118000   310.56884      1838.144      -39132.574      200.68072     -38931.894      79513.895      14.614922      0.003934302    0.0040927021   0.010749503  
    119000   299.12735      1405.7643     -39133.842      193.28756     -38940.554      79512.257      14.615223      0.004343488    0.0042547456   0.010970037  
    120000   300.86694     -122.9099      -39134.048      194.41163     -38939.636      79554.447      14.607472      0.0044263806   0.0041332881   0.011775353  
    121000   298.71247     -464.60839     -39132.462      193.01948     -38939.442      79574.939      14.603711      0.0041252863   0.0040930744   0.011994762  
    122000   293.93609     -1617.8533     -39132.881      189.93311     -38942.948      79596.075      14.599833      0.0042846699   0.0042198384   0.012408167  
    123000   300.51945      1264.7308     -39130.084      194.18709     -38935.897      79538.452      14.61041       0.0045454648   0.004277468    0.011321574  
    124000   296.67075      1177.8849     -39132.035      191.70017     -38940.335      79540.139      14.6101        0.0043886345   0.0042818337   0.011610739  
    125000   293.41004      1080.5739     -39132.292      189.5932      -38942.698      79527.472      14.612427      0.0038336385   0.0038125931   0.01120324   
    126000   303.9553       911.94593     -39133.559      196.40724     -38937.152      79535.989      14.610862      0.0045869549   0.004099314    0.011011425  
    127000   297.21719     -714.71422     -39136.573      192.05327     -38944.52       79564.152      14.605691      0.0045627099   0.004066962    0.01229482   
    128000   302.14658     -279.61731     -39133.482      195.2385      -38938.244      79576.156      14.603487      0.0043954184   0.0044606908   0.012478082  
    129000   304.65229      1241.0975     -39130.882      196.85762     -38934.025      79543.897      14.60941       0.0043506051   0.0040433956   0.011944274  
    130000   297.54679     -834.04985     -39132.891      192.26624     -38940.625      79590.457      14.600863      0.0045956839   0.0040818424   0.012179395  
    131000   306.23731      1700.0354     -39132.116      197.88181     -38934.235      79530.022      14.611958      0.0040438861   0.004252343    0.011631796  
    132000   298.50998      1011.4909     -39133.409      192.88863     -38940.52       79530.021      14.611959      0.0043698473   0.0038387449   0.011675344  
    133000   309.90619      2195.8285     -39131.796      200.25254     -38931.543      79512.42       14.615193      0.0046710747   0.0039701422   0.010327446  
    134000   302.17141      1309.026      -39135.085      195.25454     -38939.83       79512.256      14.615223      0.0040644732   0.0041187691   0.01120288   
    135000   298.0653      -413.11321     -39131.955      192.60129     -38939.353      79578.936      14.602977      0.0041075711   0.0043275912   0.012888999  
    136000   299.74         830.66022     -39135.399      193.68343     -38941.715      79529.02       14.612143      0.0043344063   0.0038894317   0.01061552   
    137000   298.74814      2805.6243     -39133.344      193.04252     -38940.302      79484.034      14.620413      0.0040638726   0.0037166299   0.010546321  
    138000   304.7597       132.7507      -39131.718      196.92702     -38934.791      79569.262      14.604753      0.0043595298   0.0043099918   0.01243708   
    139000   300.16032     -201.04132     -39135.875      193.95503     -38941.92       79551.359      14.608039      0.0040725017   0.0040824247   0.011373491  
    140000   302.8012       1032.7372     -39130.782      195.66149     -38935.12       79537.456      14.610593      0.0042226116   0.004078759    0.011300587  
    141000   297.11002     -838.84283     -39133.296      191.98402     -38941.312      79585.651      14.601745      0.0042958841   0.004087473    0.012604491  
    142000   300.10393     -2792.1207     -39131.921      193.91859     -38938.003      79640.407      14.591706      0.0042665442   0.004412344    0.013814241  
    143000   303.31142      357.4782      -39134.204      195.99119     -38938.212      79550.876      14.608128      0.0042319054   0.0038412462   0.011148717  
    144000   294.27001     -2661.4348     -39134.194      190.14888     -38944.045      79619.523      14.595533      0.0046572348   0.0043848301   0.013657735  
    145000   299.46093      129.36574     -39132.398      193.50311     -38938.895      79567.517      14.605073      0.0041738078   0.0041387935   0.012891182  
    146000   298.24706     -917.21077     -39133.971      192.71874     -38941.252      79586.883      14.601519      0.004203341    0.0041432275   0.011654865  
    147000   303.30337      715.82928     -39133.709      195.98599     -38937.723      79540.08       14.610111      0.0042166706   0.0040461717   0.012228481  
    148000   304.35569      362.48115     -39132.071      196.66596     -38935.405      79542.244      14.609713      0.0042329046   0.0040865097   0.012212789  
    149000   291.36931      453.19344     -39133.534      188.27453     -38945.26       79546.205      14.608986      0.0040845453   0.0039577211   0.011117351  
    150000   298.19625     -288.91211     -39129.087      192.68591     -38936.401      79592.053      14.60057       0.0042697623   0.0042912661   0.012568097  
    151000   301.08858      3021.2877     -39133.426      194.55485     -38938.871      79487.567      14.619763      0.0040133497   0.0040205359   0.010940457  
    152000   298.5977      -103.32686     -39130.642      192.94531     -38937.697      79573.513      14.603972      0.0043481317   0.0041136678   0.012031957  
    153000   301.09228      1163.866      -39134.076      194.55724     -38939.519      79529.956      14.611971      0.0039790507   0.0040964147   0.010846622  
    154000   305.9231       660.42647     -39131.22       197.67878     -38933.541      79543.324      14.609515      0.0040025395   0.0040048344   0.011935495  
    155000   297.59412      1301.5926     -39130.626      192.29683     -38938.329      79533.611      14.611299      0.0040965522   0.0040514686   0.011807571  
    156000   299.36979      555.39569     -39139.666      193.44421     -38946.222      79513.044      14.615078      0.00401827     0.0039135789   0.010191847  
    157000   307.76503      2725.5616     -39136.404      198.86898     -38937.535      79481          14.620971      0.0039524731   0.0039578325   0.010430127  
    158000   300.79575     -866.28406     -39128.318      194.36563     -38933.953      79609.859      14.597305      0.0046821896   0.004526126    0.013385938  
    159000   299.27018     -1072.9851     -39134.399      193.37985     -38941.019      79579.485      14.602876      0.0042601918   0.0044109308   0.01216172   
    160000   301.28233      950.86823     -39133.933      194.68004     -38939.252      79523.924      14.613079      0.0040284856   0.0039352841   0.011266455  
    161000   300.73364      2085.0769     -39134.927      194.3255      -38940.602      79486.176      14.620019      0.0038550069   0.0040428817   0.010714078  
    162000   296.86954     -651.10833     -39129.379      191.82862     -38937.55       79602.586      14.598638      0.0041966946   0.0044200216   0.013230062  
    163000   300.26746     -932.15074     -39127.936      194.02427     -38933.911      79611.54       14.596997      0.0046725975   0.0041617363   0.013065208  
    164000   297.35591     -2461.3161     -39132.486      192.14291     -38940.343      79628.025      14.593975      0.0046061232   0.0040869907   0.013065325  
    165000   307.42954      272.71366     -39133.208      198.65219     -38934.556      79555.164      14.607341      0.0042885725   0.0040848481   0.012832486  
    166000   301.27334      2272.2694     -39134.519      194.67424     -38939.845      79490.86       14.619157      0.0038926619   0.0038015107   0.010986281  
    167000   303.43972     -2270.6186     -39131.004      196.07409     -38934.93       79631.24       14.593385      0.0044209099   0.0042679143   0.012981257  
    168000   298.51677      1521.353      -39135.386      192.89302     -38942.493      79507.393      14.616117      0.0041882139   0.0038089536   0.011497729  
    169000   305.97686     -466.21326     -39132.242      197.71352     -38934.529      79572.154      14.604222      0.0043465972   0.0043052901   0.012241106  
    170000   301.97118      1048.173      -39135.803      195.12516     -38940.678      79531.071      14.611766      0.0038812      0.004090598    0.011384192  
    171000   303.69551     -512.59        -39130.278      196.23937     -38934.038      79587.184      14.601464      0.0043852786   0.0041202589   0.012368809  
    172000   302.60352     -323.26806     -39134.902      195.53376     -38939.368      79565.893      14.605371      0.0044133866   0.0039544404   0.012317158  
    173000   298.95349     -274.24709     -39131.289      193.17522     -38938.114      79563.479      14.605814      0.0040517802   0.004261702    0.012061008  
    174000   300.5169      -530.57441     -39135.482      194.18545     -38941.296      79555.356      14.607305      0.0038678688   0.0040864446   0.011428352  
    175000   302.45002     -1328.7735     -39129.59       195.43457     -38934.155      79613.466      14.596643      0.0045164263   0.0043198784   0.013613808  
    176000   302.26311     -924.8729      -39129.964      195.3138      -38934.65       79598.869      14.59932       0.0045068739   0.0041866183   0.012418219  
    177000   298.15999     -957.81252     -39131.831      192.66248     -38939.168      79580.051      14.602772      0.0042294332   0.0040125244   0.011809228  
    178000   296.46236     -646.31136     -39130.379      191.56552     -38938.814      79588.919      14.601145      0.0041554058   0.0042283406   0.013340762  
    179000   296.63624      300.92454     -39129.906      191.67787     -38938.228      79569.387      14.604729      0.0045416093   0.0041404911   0.011993526  
    180000   293.95636      839.64749     -39132.694      189.94621     -38942.747      79546.587      14.608916      0.0041321128   0.0041611049   0.012076998  
    181000   299.87839     -433.08759     -39129.622      193.77286     -38935.849      79574.616      14.60377       0.0041200727   0.0040675012   0.012609374  
    182000   298.12866     -427.0674      -39132.254      192.64224     -38939.612      79580.304      14.602726      0.0042750973   0.0040263037   0.011960012  
    183000   295.961       -182.60074     -39131.485      191.24155     -38940.243      79570.889      14.604454      0.0044057794   0.0043771829   0.013015294  
    184000   295.5863       281.99582     -39130.273      190.99943     -38939.274      79552.861      14.607764      0.0042473308   0.0042299642   0.011614664  
    185000   303.63495     -578.47762     -39132.95       196.20024     -38936.75       79571.134      14.604409      0.004138663    0.0042774266   0.012322157  
    186000   299.45943     -3682.3464     -39134.686      193.50214     -38941.184      79653.072      14.589385      0.0044647697   0.0043195566   0.014343384  
    187000   301.85319     -0.86911361    -39132.366      195.04892     -38937.317      79559.32       14.606577      0.0042276172   0.0042336673   0.011651356  
    188000   295.1286       760.35747     -39131.55       190.70368     -38940.846      79553.633      14.607622      0.0041386194   0.0042951588   0.012386078  
    189000   301.76896      1956.5103     -39133.247      194.99449     -38938.253      79519.387      14.613913      0.0039918912   0.0039350689   0.011192364  
    190000   307.93045     -0.63679038    -39135.723      198.97587     -38936.747      79540.865      14.609966      0.0040966494   0.0041975029   0.011771311  
    191000   293.8635       707.23506     -39134.181      189.88621     -38944.294      79541.078      14.609927      0.0038996719   0.0042386922   0.011816472  
    192000   298.08876     -306.22409     -39131.877      192.61645     -38939.26       79568.956      14.604809      0.0042687893   0.0042586381   0.011709358  
    193000   299.00643      1358.7861     -39130.683      193.20942     -38937.473      79527.073      14.6125        0.0041520364   0.0041173048   0.011552768  
    194000   299.05745      948.92969     -39130.839      193.24239     -38937.596      79540.077      14.610111      0.0039990402   0.0041693652   0.011488979  
    195000   297.38645     -137.11959     -39127.798      192.16264     -38935.635      79576.274      14.603465      0.0041153045   0.0044611566   0.012158735  
    196000   301.88774      350.93546     -39129.639      195.07124     -38934.568      79565.303      14.605479      0.0042142215   0.0042799472   0.011948952  
    197000   299.55303     -325.29994     -39133.258      193.56262     -38939.695      79561.621      14.606155      0.0040924939   0.0040823398   0.011946591  
    198000   300.14439      84.328476     -39127.883      193.94474     -38933.938      79585.456      14.601781      0.0041610141   0.004091761    0.012249915  
    199000   300.67778     -384.98709     -39133.857      194.2894      -38939.567      79561.309      14.606212      0.0040142213   0.0041071095   0.011660917  
    200000   307.38512      1324.9027     -39133.434      198.62349     -38934.81       79531.702      14.61165       0.0041879617   0.0039217878   0.011404997  
Loop time of 94.262 on 40 procs for 200000 steps with 5000 atoms

Performance: 183.319 ns/day, 0.131 hours/ns, 2121.745 timesteps/s, 10.609 Matom-step/s
92.6% CPU use with 40 MPI tasks x 1 OpenMP threads

MPI task timing breakdown:
Section |  min time  |  avg time  |  max time  |%varavg| %total
---------------------------------------------------------------
Pair    | 56.981     | 59.594     | 62.557     |  16.8 | 63.22
Neigh   | 0          | 0          | 0          |   0.0 |  0.00
Comm    | 22.545     | 24.762     | 27.149     |  25.8 | 26.27
Output  | 0.052135   | 0.066097   | 0.079383   |   3.2 |  0.07
Modify  | 6.8738     | 7.6046     | 8.5034     |  12.6 |  8.07
Other   |            | 2.236      |            |       |  2.37

Nlocal:            125 ave         136 max         113 min
Histogram: 1 3 5 3 8 4 7 2 3 4
Nghost:           1142 ave        1154 max        1131 min
Histogram: 4 3 2 7 4 8 3 5 3 1
Neighs:           7000 ave        7628 max        6403 min
Histogram: 3 4 2 6 5 9 4 0 4 3

Total # of neighbors = 280000
Ave neighs/atom = 56
Neighbor list builds = 0
Dangerous builds = 0
	unfix           feq


# ----- HEATING FROM Ti TO Thigh -----
	fix             fheat all npt temp ${Ti} ${Thigh} ${tdamp} iso ${press} ${press} ${pdamp}
	fix             fheat all npt temp 300 ${Thigh} ${tdamp} iso ${press} ${press} ${pdamp}
	fix             fheat all npt temp 300 3300 ${tdamp} iso ${press} ${press} ${pdamp}
	fix             fheat all npt temp 300 3300 0.1 iso ${press} ${press} ${pdamp}
	fix             fheat all npt temp 300 3300 0.1 iso 1 ${press} ${pdamp}
	fix             fheat all npt temp 300 3300 0.1 iso 1 1 ${pdamp}
	fix             fheat all npt temp 300 3300 0.1 iso 1 1 1
	run             1000000   # 1 ns
Per MPI rank memory allocation (min/avg/max) = 5.35 | 5.353 | 5.358 Mbytes
   Step          Temp          Press          PotEng         KinEng         TotEng         Volume        Density        c_msd[1]       c_msd[2]       c_msd[3]   
    200000   307.38512      1324.9027     -39133.434      198.62349     -38934.81       79531.702      14.61165       0.0041879617   0.0039217878   0.011404997  
    201000   301.57043     -1925.6857     -39135.097      194.86621     -38940.231      79604.509      14.598286      0.0042796712   0.0042337452   0.012905587  
    202000   304.36582     -749.16779     -39128.104      196.67251     -38931.432      79597.663      14.599541      0.0043619968   0.0044949762   0.012604372  
    203000   308.96556      248.33597     -39124.444      199.64473     -38924.799      79590.83       14.600795      0.0044144134   0.0044818397   0.012306378  
    204000   307.66372     -1312.0678     -39123.532      198.80352     -38924.728      79631.1        14.593411      0.0043983525   0.0046531851   0.014109721  
    205000   309.64395      546.86963     -39125.791      200.08308     -38925.708      79575.534      14.603601      0.0045584463   0.004430125    0.012821799  
    206000   314.44133      1124.874      -39122.05       203.18302     -38918.867      79576.703      14.603387      0.0045058229   0.0044413879   0.012104586  
    207000   316.65103      1277.3144     -39115.983      204.61086     -38911.372      79599.275      14.599246      0.0045268708   0.0045559418   0.013893265  
    208000   323.44913     -1242.1374     -39117.423      209.0036      -38908.42       79672.682      14.585795      0.0049315695   0.0048343751   0.014647887  
    209000   328.13305      1416.2711     -39110.39       212.03021     -38898.36       79633.015      14.59306       0.0046963306   0.0045091395   0.01375341   
    210000   326.21896      910.74986     -39117.188      210.79338     -38906.395      79614.691      14.596419      0.0045555171   0.0042181308   0.013391303  
    211000   332.84865      800.66406     -39109.55       215.0773      -38894.473      79650.218      14.589908      0.0046115808   0.0048967243   0.014459834  
    212000   326.82063     -298.58888     -39110.645      211.18217     -38899.462      79661.793      14.587788      0.0048965975   0.0047293779   0.014359977  
    213000   340.21682      531.01809     -39107.543      219.8384      -38887.704      79667.145      14.586808      0.0048322748   0.0046956933   0.013778172  
    214000   339.28935     -90.910119     -39102.787      219.2391      -38883.548      79688.897      14.582827      0.0048414063   0.0049964762   0.015019764  
    215000   332.00459      1267.7817     -39100.962      214.53189     -38886.43       79672.799      14.585773      0.004972221    0.0050981145   0.01511464   
    216000   353.16018     -1167.6883     -39102.128      228.20203     -38873.926      79740.602      14.573371      0.0053306772   0.0049388653   0.015288393  
    217000   358.34957     -3028.1204     -39103.538      231.55527     -38871.983      79776.894      14.566741      0.0053473537   0.0051607224   0.016280086  
    218000   356.86236     -1810.4027     -39095.086      230.59427     -38864.492      79786.556      14.564977      0.0052490179   0.0056655593   0.017338962  
    219000   350.48896      2031.8367     -39092.672      226.47596     -38866.196      79690.818      14.582475      0.0055016852   0.0051156329   0.015486737  
    220000   362.81076     -955.65145     -39099.555      234.43796     -38865.117      79734.988      14.574397      0.0052972531   0.0049460827   0.015434205  
    221000   355.01072      229.93138     -39086.158      229.39779     -38856.76       79755.215      14.570701      0.0055491991   0.0054329543   0.016334009  
    222000   362.46512      677.47967     -39090.123      234.21462     -38855.909      79735.32       14.574336      0.0053139537   0.0054627754   0.017275496  
    223000   378.13478     -796.8496      -39086.055      244.3399      -38841.715      79786.204      14.565041      0.0060882383   0.00525985     0.016724746  
    224000   364.08716     -1894.4373     -39086.198      235.26274     -38850.935      79820.848      14.55872       0.0056411921   0.0054505806   0.017554467  
    225000   381.99914     -316.7389      -39086.123      246.83694     -38839.286      79781.374      14.565923      0.0055452574   0.0055866388   0.018456293  
    226000   379.01067      2404.5516     -39084.371      244.90588     -38839.465      79720.645      14.577019      0.0053896405   0.005186686    0.016005244  
    227000   379.48547      552.23813     -39079.367      245.21269     -38834.155      79777.513      14.566628      0.0057957625   0.005547801    0.016586341  
    228000   378.8578      -351.43688     -39078.618      244.8071      -38833.811      79829.59       14.557126      0.0058860496   0.0057654667   0.019217194  
    229000   387.30668     -1107.9215     -39077.95       250.26653     -38827.683      79830.865      14.556893      0.0061987489   0.0058867119   0.019455992  
    230000   386.24209     -1598.8487     -39074.998      249.57862     -38825.419      79863.009      14.551034      0.0062794098   0.0058050911   0.018852406  
    231000   389.97262     -96.321988     -39073.288      251.98918     -38821.298      79830.151      14.557023      0.0057512528   0.006352863    0.018067351  
    232000   393.69725     -634.32693     -39065.941      254.39593     -38811.545      79882.836      14.547423      0.0061114774   0.0069355784   0.022021078  
    233000   403.21519     -1984.6129     -39070.881      260.54615     -38810.335      79899.075      14.544466      0.0063147549   0.0061295671   0.020036726  
    234000   402.26033      310.01832     -39067.275      259.92915     -38807.345      79843.611      14.554569      0.0061273554   0.005784586    0.017576233  
    235000   407.41652      242.50593     -39064.761      263.26093     -38801.5        79856.298      14.552257      0.0059692235   0.0067563933   0.020846117  
    236000   401.71149      1778.5335     -39066.851      259.5745      -38807.276      79794.162      14.563589      0.0056928395   0.0064686835   0.018162203  
    237000   409.16259     -744.08601     -39058.343      264.38919     -38793.953      79924.867      14.539772      0.0067220305   0.0067145779   0.020275891  
    238000   422.4331      -17.181418     -39057.183      272.96421     -38784.219      79903.817      14.543603      0.006414151    0.0064341726   0.020490193  
    239000   419.83101     -853.43513     -39059.143      271.28282     -38787.861      79908.185      14.542808      0.0060694107   0.0067704927   0.021897663  
    240000   421.38347     -4559.573      -39057.02       272.28597     -38784.734      80039.142      14.519013      0.0067757652   0.0075518424   0.023826462  
    241000   423.61213     -510.27348     -39051.166      273.72607     -38777.44       79930.704      14.538711      0.0065842774   0.0069189069   0.019390296  
    242000   425.70301      477.98392     -39056.077      275.07714     -38781          79876.688      14.548542      0.0060934591   0.0068463436   0.021397036  
    243000   427.75355     -767.13673     -39053.928      276.40214     -38777.526      79922.849      14.540139      0.0067679901   0.0071638335   0.021024468  
    244000   436.28884     -1206.3358     -39047.704      281.9174      -38765.786      79972.122      14.531181      0.0071665648   0.0066787594   0.020023529  
    245000   427.94166     -1112.9327     -39048.746      276.52369     -38772.223      79956.542      14.534012      0.0065928108   0.0067555387   0.024396275  
    246000   433.82207      1360.4593     -39047.566      280.32344     -38767.243      79893.964      14.545396      0.0061880296   0.006918931    0.021063138  
    247000   439.32664      465.85186     -39044.656      283.88034     -38760.776      79947.901      14.535583      0.0069302363   0.0072074933   0.019266423  
    248000   455.21849      634.25425     -39035.35       294.1492      -38741.201      79967.625      14.531998      0.0072414271   0.0066228685   0.023285843  
    249000   447.48246      2763.2561     -39039.678      289.1504      -38750.528      79902.798      14.543788      0.006377454    0.0070175629   0.022165677  
    250000   442.90924      2782.816      -39034.101      286.19531     -38747.905      79904.44       14.543489      0.0065531049   0.0072295855   0.01880859   
    251000   456.03279     -1604.8253     -39034.494      294.67538     -38739.818      80053.278      14.51645       0.0076673121   0.0074599445   0.024264939  
    252000   453.1155      -1520.7006     -39037.061      292.79031     -38744.271      80030.613      14.520561      0.0073657127   0.0073202829   0.026591538  
    253000   463.41014      2509.7334     -39031.589      299.44241     -38732.146      79948.309      14.535509      0.006867818    0.0074251443   0.020681195  
    254000   464.75832      564.6564      -39032.069      300.31356     -38731.755      79990.344      14.527871      0.0074486211   0.0070803365   0.021108191  
    255000   462.72504      2504.1726     -39022.737      298.99972     -38723.737      79980.678      14.529626      0.0073572401   0.0072966313   0.025724312  
    256000   466.75657      152.94397     -39026.499      301.60477     -38724.895      80034.58       14.519841      0.0074682798   0.0072150522   0.024534424  
    257000   464.88906     -2739.9512     -39023.636      300.39805     -38723.238      80108.307      14.506478      0.0080309165   0.0082612977   0.024955102  
    258000   469.2065       2760.0644     -39023.559      303.18785     -38720.372      79976.807      14.53033       0.0074400515   0.007252238    0.024245606  
    259000   478.93323      1193.7826     -39023.758      309.47298     -38714.285      80004.343      14.525329      0.007764117    0.0071400848   0.024124084  
    260000   480.47299     -992.23034     -39013.108      310.46794     -38702.64       80093.929      14.509082      0.0080656791   0.0079616372   0.024667808  
    261000   477.59929      662.35255     -39016.244      308.61103     -38707.633      80040.272      14.518808      0.0073971148   0.0076911744   0.024187354  
    262000   481.59752      833.99399     -39011.156      311.19457     -38699.962      80066.736      14.51401       0.0080652353   0.0075142556   0.026991055  
    263000   488.74992     -2588.2773     -39016.521      315.81625     -38700.705      80148.225      14.499253      0.0079829681   0.0080604045   0.026746049  
    264000   489.48568     -2351.6589     -39009.56       316.29168     -38693.269      80164.84       14.496248      0.0083642666   0.0082628179   0.027393239  
    265000   486.67787      2632.1158     -39002.542      314.47735     -38688.064      80035.264      14.519717      0.0082436449   0.0074064436   0.026574789  
    266000   502.35556      425.90009     -38999.362      324.60783     -38674.754      80121.93       14.504011      0.0087045701   0.008091932    0.026795158  
    267000   500.06737     -183.85208     -39004.474      323.12927     -38681.345      80130.227      14.502509      0.0081672636   0.0085114986   0.025667339  
    268000   502.83086      1251.4346     -38996.595      324.91496     -38671.68       80121.572      14.504076      0.0087583272   0.0076579636   0.029322469  
    269000   499.58157      1232.7846     -38999.9        322.81535     -38677.085      80092.983      14.509253      0.0080569555   0.0076487162   0.027220413  
    270000   505.91275     -1364.7771     -38999.778      326.90638     -38672.871      80178.097      14.493851      0.0087274411   0.0088908134   0.027335114  
    271000   514.38876     -2226.5014     -38995.215      332.38334     -38662.832      80213.374      14.487476      0.009381194    0.0087025439   0.031331828  
    272000   513.32366     -796.75006     -38998.516      331.6951      -38666.821      80163.902      14.496417      0.008225897    0.0079944083   0.028184304  
    273000   523.7468      -2614.7499     -38993.98       338.43023     -38655.549      80229.779      14.484514      0.0086323813   0.0092191416   0.028856623  
    274000   523.97594     -1746.7851     -38993.604      338.5783      -38655.026      80218.848      14.486488      0.0093553535   0.0086994192   0.030520975  
    275000   519.26355     -723.36932     -38983.495      335.53329     -38647.961      80232.476      14.484027      0.0096179442   0.0085863232   0.030483357  
    276000   526.48973     -872.99241     -38989.663      340.20264     -38649.461      80205.309      14.488933      0.0086477835   0.0085834391   0.028962849  
    277000   517.4667      -2592.0583     -38977.263      334.37222     -38642.89       80284.984      14.474554      0.0092756033   0.0097556651   0.032748784  
    278000   535.57703     -1224.6103     -38983.845      346.0746      -38637.77       80247.041      14.481398      0.0097862551   0.0086261958   0.032215713  
    279000   544.05091     -2324.1897     -38977.032      351.55018     -38625.482      80296.243      14.472525      0.0096075739   0.0092196564   0.032652144  
    280000   530.97508     -1416.3076     -38988.639      343.10094     -38645.538      80225.388      14.485307      0.0088149706   0.0092281075   0.03055992   
    281000   543.72844     -265.74929     -38974.3        351.3418      -38622.959      80247.008      14.481404      0.0094280547   0.008826773    0.033555115  
    282000   529.86756     -100.36029     -38976.203      342.38529     -38633.818      80213.72       14.487414      0.0095033318   0.0086572755   0.030656302  
    283000   552.95202     -1615.0679     -38968.454      357.30182     -38611.152      80289.141      14.473805      0.0099505825   0.010121022    0.032269545  
    284000   541.90083      761.49347     -38967.459      350.16085     -38617.298      80241.227      14.482448      0.0088996783   0.0092283175   0.033168828  
    285000   547.91585      958.95498     -38967.959      354.04759     -38613.912      80249.047      14.481036      0.010025029    0.009044906    0.032151226  
    286000   560.13103     -644.44663     -38961.914      361.94069     -38599.974      80313.418      14.46943       0.010566504    0.009777142    0.031889607  
    287000   554.91166      961.57454     -38963.092      358.56808     -38604.524      80252.472      14.480418      0.0087861919   0.009619159    0.032452519  
    288000   564.73127      1676.2726     -38966.189      364.91323     -38601.276      80218.111      14.486621      0.0091533244   0.0087183975   0.031461856  
    289000   583.43712     -720.01395     -38958.924      377.00042     -38581.923      80307.074      14.470573      0.010916501    0.0094124289   0.030984737  
    290000   568.11072     -1031.6143     -38952.087      367.09694     -38584.99       80340.62       14.464531      0.0097659858   0.010857899    0.03501183   
    291000   561.42294      278.02244     -38959.939      362.77549     -38597.164      80303.283      14.471256      0.0093785189   0.0094192042   0.035426863  
    292000   563.51584     -1803.1326     -38948.063      364.12786     -38583.935      80391.549      14.455367      0.011714149    0.010315576    0.034147991  
    293000   591.57962     -30.541259     -38946.776      382.26187     -38564.514      80338.644      14.464887      0.010167224    0.010352589    0.03364859   
    294000   582.23712     -832.82521     -38951.905      376.22502     -38575.68       80357.85       14.461429      0.009671992    0.010348594    0.038069998  
    295000   582.38895     -700.04679     -38951.297      376.32312     -38574.974      80366.415      14.459888      0.010524127    0.010183254    0.033740129  
    296000   579.01751      1748.6295     -38938.933      374.14459     -38564.788      80328.059      14.466793      0.010494041    0.010076836    0.033289761  
    297000   589.27976     -486.09047     -38944.831      380.77576     -38564.055      80368.77       14.459464      0.010346827    0.010293697    0.037588837  
    298000   597.76413     -1318.0239     -38938.979      386.25812     -38552.721      80405.867      14.452793      0.011299708    0.010444549    0.034775333  
    299000   590.77949     -1097.8627     -38945.909      381.74485     -38564.164      80383.21       14.456867      0.011003425    0.009977131    0.034789048  
    300000   603.60238      676.44133     -38935.915      390.03063     -38545.885      80382.343      14.457023      0.01046098     0.01033744     0.036979302  
    301000   592.86736     -142.36297     -38933.123      383.09397     -38550.029      80401.285      14.453617      0.011402234    0.010812679    0.036866978  
    302000   609.26064     -1822.0421     -38942.202      393.68684     -38548.515      80410.965      14.451877      0.011172683    0.010233026    0.036612249  
    303000   615.56507     -1393.9286     -38933.119      397.76058     -38535.359      80462.697      14.442585      0.010906831    0.01086247     0.039454749  
    304000   610.9476      -1323.4577     -38938.412      394.77691     -38543.635      80417.621      14.450681      0.011227674    0.010442634    0.037435733  
    305000   621.63643     -888.61428     -38927.849      401.68372     -38526.165      80444.8        14.445799      0.011839743    0.010386123    0.038506704  
    306000   616.41796      1223.6325     -38930.095      398.3117      -38531.783      80392.169      14.455256      0.010902102    0.010539114    0.036258375  
    307000   626.105        5078.5088     -38915.724      404.57118     -38511.153      80321.823      14.467916      0.010713013    0.010845487    0.034543007  
    308000   626.94684      3439.4673     -38927.986      405.11516     -38522.871      80334.475      14.465637      0.011388891    0.010026268    0.034885076  
    309000   635.27324      1133.0596     -38919.785      410.49544     -38509.29       80409.96       14.452058      0.011361931    0.010533616    0.03668506   
    310000   637.69266      892.82508     -38922.996      412.0588      -38510.937      80398.765      14.45407       0.011360641    0.01152409     0.036712257  
    311000   637.75957     -8.5212845     -38920.527      412.10204     -38508.425      80453.835      14.444176      0.012348347    0.011893707    0.038921771  
    312000   647.48581     -2143.8025     -38914.356      418.38685     -38495.969      80544.612      14.427897      0.012121159    0.010988097    0.041318165  
    313000   639.6437       301.34621     -38915.771      413.31951     -38502.452      80444.119      14.445921      0.011199492    0.011840308    0.040441151  
    314000   639.16456      1397.688      -38907.669      413.0099      -38494.659      80461.726      14.44276       0.011846173    0.012350262    0.038325541  
    315000   641.29011     -1837.6175     -38912.298      414.38337     -38497.915      80528.239      14.430831      0.01219196     0.011364846    0.040744707  
    316000   648.2816      -3917.1717     -38903.789      418.90107     -38484.888      80620.346      14.414344      0.012094805    0.012127327    0.047904014  
    317000   639.3821      -1874.8663     -38911.817      413.15047     -38498.667      80530.469      14.430431      0.011341422    0.012350623    0.041230282  
    318000   647.64335      188.86512     -38900.742      418.48865     -38482.253      80508.481      14.434372      0.012381427    0.011802252    0.039556557  
    319000   650.40684     -2330.5288     -38897.943      420.27434     -38477.669      80592.485      14.419327      0.012800948    0.01263476     0.046333183  
    320000   648.20159      1716.5087     -38893.866      418.84937     -38475.017      80505.362      14.434931      0.011497728    0.011829533    0.040768478  
    321000   669.24371      1905.0861     -38888.609      432.44619     -38456.163      80504.237      14.435133      0.012151807    0.012241755    0.039867122  
    322000   664.16079      1151.8922     -38896.187      429.16175     -38467.026      80507.667      14.434518      0.011756913    0.012775992    0.043052433  
    323000   674.82426      2128.5639     -38893.983      436.05218     -38457.931      80482.383      14.439053      0.011508402    0.01145912     0.040802544  
    324000   675.18619     -253.94149     -38891.223      436.28605     -38454.937      80572.635      14.422879      0.012200117    0.011992423    0.042142112  
    325000   669.67967     -294.40728     -38894.552      432.72789     -38461.825      80550.126      14.426909      0.012091396    0.01133456     0.046757996  
    326000   673.29155      2191.1736     -38881.733      435.06179     -38446.672      80542.503      14.428275      0.012588999    0.012277109    0.04372844   
    327000   680.38631     -589.35837     -38886.943      439.64622     -38447.296      80587.236      14.420266      0.013194026    0.012550025    0.042746322  
    328000   679.60787     -1058.8363     -38886.513      439.14322     -38447.37       80566.641      14.423952      0.012594066    0.011561483    0.046778863  
    329000   691.1891       1290.7368     -38878.944      446.62667     -38432.317      80558.719      14.425371      0.012579686    0.012685547    0.043886212  
    330000   692.32519     -1848.714      -38878.126      447.36078     -38430.765      80658.683      14.407493      0.013327581    0.012971744    0.044648793  
    331000   698.95879      671.97171     -38873.179      451.64723     -38421.531      80601.749      14.417669      0.012980893    0.012193102    0.04643657   
    332000   690.47598     -864.29678     -38879.644      446.16588     -38433.478      80601.444      14.417724      0.013260708    0.012312108    0.044514188  
    333000   713.74148     -97.000608     -38876.317      461.19938     -38415.118      80615.262      14.415253      0.012953009    0.012857656    0.043297581  
    334000   697.80695     -433.52983     -38866.127      450.90294     -38415.224      80664.557      14.406443      0.013085333    0.013839603    0.048032406  
    335000   706.24695     -944.45143     -38876.138      456.35663     -38419.782      80633.7        14.411956      0.013646656    0.014045878    0.047031954  
    336000   696.49546      2306.8443     -38870.711      450.05549     -38420.656      80558.752      14.425365      0.012709875    0.012161753    0.042575303  
    337000   725.6025       89.89316      -38870.48       468.86363     -38401.616      80630.066      14.412606      0.012428836    0.012582376    0.04516568   
    338000   717.72942     -3056.8265     -38873.58       463.77627     -38409.804      80715.025      14.397436      0.013551826    0.013636794    0.050329309  
    339000   723.81603      16.304232     -38860.78       467.70926     -38393.071      80668.179      14.405796      0.013427935    0.013374411    0.04760149   
    340000   721.22765     -1337.2808     -38856.814      466.03673     -38390.777      80727.013      14.395298      0.013454089    0.013206257    0.047678814  
    341000   728.00587      692.72702     -38864.546      470.41662     -38394.129      80638.204      14.411152      0.013961603    0.012998517    0.047736631  
    342000   738.6686       498.40346     -38857.811      477.30657     -38380.505      80667.013      14.406005      0.014079013    0.01329805     0.046760762  
    343000   722.84816      293.31102     -38863.497      467.08385     -38396.413      80648.634      14.409288      0.013043611    0.013281407    0.046393396  
    344000   744.12583      2406.5711     -38854.717      480.83288     -38373.885      80635.801      14.411581      0.014163331    0.013392338    0.047277691  
    345000   731.73736      2683.0154     -38851.388      472.8278      -38378.56       80640.075      14.410817      0.013224311    0.01334654     0.046548118  
    346000   745.90847     -2537.2364     -38851.21       481.98477     -38369.225      80753.156      14.390637      0.014065527    0.01295595     0.050187176  
    347000   752.82917      4028.3395     -38841.602      486.45673     -38355.146      80632.797      14.412118      0.013846449    0.013358501    0.046126006  
    348000   737.77636      738.242       -38849.442      476.73003     -38372.712      80678.59       14.403938      0.013223708    0.013418249    0.049048368  
    349000   744.03328      1550.5519     -38836.627      480.77308     -38355.853      80686.739      14.402483      0.013958322    0.013437169    0.047614994  
    350000   741.26255      2326.5319     -38846.315      478.98271     -38367.333      80642.804      14.41033       0.013650414    0.014027283    0.044432075  
    351000   758.17479     -2386.6402     -38838.673      489.91092     -38348.763      80790.714      14.383947      0.014592221    0.014594991    0.05220517   
    352000   738.11354      2366.3213     -38846.943      476.94791     -38369.995      80627.601      14.413047      0.013667176    0.014137479    0.043374381  
    353000   764.41846      484.69261     -38832.363      493.9454      -38338.418      80737.291      14.393465      0.014351687    0.014019135    0.049316026  
    354000   752.32355     -1778.36       -38833.829      486.13001     -38347.699      80789.588      14.384148      0.014770623    0.013534404    0.053841109  
    355000   774.32669     -700.55439     -38829.788      500.34781     -38329.44       80795.878      14.383028      0.015280903    0.015386004    0.051180685  
    356000   754.38972     -1634.4314     -38833.723      487.46511     -38346.258      80813.799      14.379838      0.014108482    0.014716228    0.053650637  
    357000   771.84153      1937.3338     -38828.479      498.74197     -38329.737      80752.722      14.390715      0.013725163    0.013494032    0.052316907  
    358000   770.54133     -2227.3446     -38820.865      497.90182     -38322.963      80840.935      14.375012      0.0157658      0.015236698    0.054816841  
    359000   767.82896      1519.2718     -38822.113      496.14917     -38325.964      80746.672      14.391793      0.015012526    0.013903628    0.050421     
    360000   781.56991      2384.5558     -38816.715      505.02817     -38311.687      80757.34       14.389892      0.013139513    0.01572407     0.051949565  
    361000   781.03251     -969.59854     -38827.059      504.68092     -38322.378      80811.207      14.3803        0.015113172    0.015709798    0.052915051  
    362000   801.09671      1549.4213     -38822.415      517.64584     -38304.77       80752.952      14.390674      0.014612734    0.013983461    0.050792115  
    363000   790.0327      -2439.3343     -38803.455      510.49659     -38292.959      80934.846      14.358332      0.0166203      0.015720507    0.059035828  
    364000   794.72953     -566.37302     -38815.597      513.53155     -38302.066      80843.503      14.374555      0.016199804    0.015374898    0.05693544   
    365000   793.63177     -334.32691     -38802.693      512.8222      -38289.87       80885.17       14.36715       0.014512216    0.014953911    0.056738596  
    366000   788.89875     -1243.2086     -38815.393      509.76386     -38305.629      80859.965      14.371628      0.015952369    0.015426724    0.054781454  
    367000   807.01653      2108.1979     -38805.831      521.47105     -38284.36       80826.288      14.377617      0.016453929    0.01395249     0.054929149  
    368000   788.89797      3059.6594     -38815.565      509.76336     -38305.802      80735.932      14.393707      0.013922142    0.013885563    0.049127263  
    369000   798.94806      571.79094     -38794.128      516.25744     -38277.871      80861.638      14.371331      0.015334705    0.017030817    0.054866372  
    370000   795.97705     -2193.8269     -38811.49       514.33766     -38297.153      80903.404      14.363912      0.016281037    0.014573326    0.058830871  
    371000   814.11369      2152.1851     -38794.424      526.05704     -38268.367      80841.432      14.374923      0.015646391    0.014548995    0.052568904  
    372000   816.69977      14.163348     -38800.573      527.72809     -38272.845      80867.629      14.370266      0.016184113    0.015592235    0.056606738  
    373000   828.58231      629.12818     -38790.355      535.40624     -38254.949      80888.78       14.366509      0.016098103    0.014695105    0.058724309  
    374000   820.15821     -4561.6436     -38801.025      529.96283     -38271.062      81014.587      14.344199      0.016912754    0.016693957    0.061575581  
    375000   834.01705     -744.91323     -38790.81       538.91802     -38251.892      80933.882      14.358503      0.016523616    0.016098765    0.059740223  
    376000   835.82125     -2727.9963     -38782.786      540.08384     -38242.702      81016.632      14.343837      0.017736479    0.016420722    0.06735052   
    377000   820.68265      1056.468      -38790.034      530.30171     -38259.733      80882.282      14.367663      0.01517978     0.016415849    0.057822535  
    378000   837.74559      757.12435     -38782.216      541.3273      -38240.888      80931.321      14.358957      0.016203752    0.016309758    0.059999419  
    379000   831.7533       3470.4004     -38785.576      537.45525     -38248.121      80832.824      14.376454      0.016691664    0.01495555     0.056435614  
    380000   837.40785      2537.8684     -38783.724      541.10906     -38242.615      80871.151      14.369641      0.016621467    0.016112653    0.057021912  
    381000   844.1742       1222.3523     -38776.146      545.48128     -38230.665      80916.344      14.361615      0.015658086    0.016546022    0.059884361  
    382000   855.96268     -613.15196     -38774.006      553.09866     -38220.908      80990.586      14.34845       0.017626459    0.016853475    0.064806941  
    383000   852.35186     -62.109897     -38785.148      550.76545     -38234.382      80941.789      14.3571        0.016450026    0.016319434    0.061294646  
    384000   856.29599      713.88396     -38758.721      553.31403     -38205.407      80978.754      14.350547      0.017650482    0.015511623    0.063544614  
    385000   863.84345     -168.88667     -38777.935      558.19099     -38219.744      80982.775      14.349834      0.01668062     0.016401039    0.063964445  
    386000   862.49209      3062.4331     -38765.095      557.31778     -38207.777      80903.625      14.363873      0.01551328     0.016973653    0.058364376  
    387000   866.15182      5794.7259     -38776.839      559.68259     -38217.156      80796.584      14.382902      0.016130832    0.014180892    0.057204375  
    388000   858.78481      1105.6835     -38775.48       554.92224     -38220.557      80924.638      14.360143      0.017101075    0.016261379    0.060343133  
    389000   854.48554     -2629.384      -38759.127      552.14417     -38206.983      81082.082      14.332259      0.016670089    0.017687366    0.068504133  
    390000   874.15393     -3797.6006     -38758.623      564.85333     -38193.77       81111.55       14.327052      0.01877036     0.016471704    0.069683418  
    391000   856.89972     -597.6369      -38759.511      553.70415     -38205.807      81048.794      14.338145      0.017572126    0.017224346    0.06718819   
    392000   874.1107       641.19159     -38765.882      564.82539     -38201.057      80993.428      14.347946      0.016275344    0.015966568    0.064218022  
    393000   885.41986      1015.1554     -38753.289      572.13305     -38181.156      81008.426      14.34529       0.017847417    0.016497574    0.063820376  
    394000   891.61539      277.05299     -38759.498      576.13642     -38183.362      81007.346      14.345481      0.016722861    0.016261437    0.062941422  
    395000   893.50598     -127.1502      -38752.498      577.35807     -38175.14       81046.009      14.338638      0.016379331    0.016927043    0.065722433  
    396000   867.8446      -766.93303     -38750.285      560.77641     -38189.508      81044.52       14.338901      0.018483197    0.016880563    0.065564184  
    397000   895.445        3279.5098     -38746.823      578.61101     -38168.212      80956.841      14.354431      0.016462937    0.016753       0.061302066  
    398000   909.43569     -3364.6077     -38740.089      587.65139     -38152.438      81169.821      14.316767      0.018160497    0.017036209    0.072715341  
    399000   887.47033      894.27075     -38735.732      573.458       -38162.274      81068.534      14.334654      0.018282177    0.017567213    0.066287234  
    400000   895.00226     -4090.2908     -38748.918      578.32492     -38170.594      81163.659      14.317853      0.017950405    0.018707305    0.069610317  
    401000   907.26772     -747.74286     -38733.835      586.25051     -38147.584      81106.876      14.327877      0.018550042    0.017314404    0.068117982  
    402000   913.39173      4690.4218     -38747.495      590.20767     -38157.287      80942.012      14.357061      0.016002065    0.017260415    0.062056211  
    403000   902.61931     -730.75324     -38739.82       583.24684     -38156.573      81114.108      14.3266        0.017647536    0.01773716     0.069627715  
    404000   935.61009     -2215.8671     -38737.777      604.56454     -38133.212      81157.473      14.318945      0.020346594    0.017126802    0.069179652  
    405000   916.11212     -1481.097      -38738.251      591.96551     -38146.286      81107.778      14.327718      0.018092959    0.018700889    0.071337624  
    406000   926.44481     -5799.3885     -38723.925      598.6422      -38125.282      81300.425      14.293768      0.019128739    0.019519025    0.078704737  
    407000   924.27686     -1072.1759     -38719.746      597.24133     -38122.504      81176.015      14.315674      0.019818189    0.018944944    0.070592435  
    408000   928.66234     -715.42182     -38724.367      600.07511     -38124.292      81165.07       14.317605      0.018001833    0.019200936    0.072208784  
    409000   926.1465       927.66459     -38728.239      598.44944     -38129.789      81090.511      14.330769      0.018128008    0.017535763    0.070341518  
    410000   942.81741      2160.6224     -38720.038      609.22171     -38110.816      81093.428      14.330253      0.019317483    0.019226452    0.066005326  
    411000   933.49419      958.82487     -38721.425      603.19731     -38118.227      81118.956      14.325744      0.017571511    0.018211551    0.068567425  
    412000   944.73866      3746.9488     -38710.338      610.46316     -38099.875      81058.062      14.336506      0.019771455    0.018460635    0.070366183  
    413000   943.7993      -1173.4075     -38722.968      609.85618     -38113.112      81169.693      14.316789      0.019641428    0.018031669    0.070458299  
    414000   944.58599     -2003.5031     -38697.102      610.36451     -38086.737      81277.495      14.2978        0.018321661    0.020808153    0.073910064  
    415000   949.00307     -3330.7321     -38707.4        613.21871     -38094.182      81277.363      14.297823      0.021003939    0.020981596    0.082808766  
    416000   961.80129      2538.7882     -38711.27       621.48855     -38089.781      81107.92       14.327693      0.0186374      0.018919336    0.071143064  
    417000   952.56444      2645.8287     -38702.048      615.51996     -38086.528      81120.693      14.325437      0.0184397      0.018867601    0.065252272  
    418000   958.28624     -653.86466     -38699.623      619.21722     -38080.406      81236.541      14.305008      0.019693381    0.020331385    0.078700284  
    419000   958.82369     -3603.4972     -38704.622      619.56451     -38085.057      81274.821      14.29827       0.019145938    0.02029914     0.080411995  
    420000   950.34385     -4803.6225     -38695.624      614.08508     -38081.539      81352.475      14.284622      0.021974819    0.021629664    0.077007648  
    421000   975.29064     -1744.1192     -38696.596      630.20498     -38066.391      81259.98       14.300882      0.020087043    0.019269891    0.080792668  
    422000   962.92641     -358.85818     -38701.049      622.21557     -38078.834      81204.178      14.310709      0.018094183    0.019428532    0.077474278  
    423000   964.17746     -12.383512     -38689.063      623.02396     -38066.039      81231.077      14.30597       0.020732862    0.020575541    0.070053453  
    424000   972.56448      1268.1072     -38686.456      628.44341     -38058.013      81223.451      14.307313      0.019940695    0.019820364    0.079429065  
    425000   973.97929     -624.40082     -38687.954      629.35762     -38058.596      81255.612      14.301651      0.020453301    0.0205446      0.079391991  
    426000   959.14792     -601.07139     -38687.358      619.77401     -38067.584      81244.748      14.303563      0.021770459    0.01943003     0.070705238  
    427000   983.38401     -2026.5529     -38685.778      635.43468     -38050.344      81311.748      14.291777      0.018989016    0.020910493    0.081753205  
    428000   1005.3427      62.286137     -38693.281      649.62378     -38043.657      81221.105      14.307727      0.020791178    0.0192601      0.07361032   
    429000   986.66523      3173.5997     -38673.307      637.55491     -38035.752      81172.927      14.316219      0.02097398     0.019831898    0.070060604  
    430000   973.3708      -1242.8779     -38677.255      628.96444     -38048.29       81321.555      14.290054      0.02062786     0.021573259    0.083900189  
    431000   999.73953      1083.411      -38671.685      646.00316     -38025.682      81276.468      14.297981      0.020579958    0.020101082    0.07412446   
    432000   976.76759      1061.6201     -38675.962      631.15935     -38044.803      81229.614      14.306228      0.020392544    0.020859944    0.072952034  
    433000   1008.3837     -910.83034     -38669.769      651.58875     -38018.181      81311.589      14.291805      0.021581983    0.020303766    0.084335647  
    434000   1002.697       187.73105     -38692.135      647.91417     -38044.221      81255.372      14.301693      0.021556536    0.020334934    0.073545981  
    435000   994.20905      2421.1583     -38659.824      642.42952     -38017.394      81255.76       14.301625      0.019877189    0.020211985    0.076360985  
    436000   1020.4188     -907.85237     -38659.777      659.36553     -38000.411      81369.017      14.281718      0.021834028    0.021878493    0.087892748  
    437000   1009.5131      3889.4593     -38666.645      652.31856     -38014.326      81170.696      14.316612      0.020318615    0.019556569    0.06548607   
    438000   1040.4717     -3083.9654     -38660.678      672.32314     -37988.354      81427.228      14.271509      0.022536575    0.021412765    0.086378528  
    439000   1015.1754      3099.1371     -38664.015      655.97738     -38008.037      81240.641      14.304286      0.020968589    0.020088221    0.079144841  
    440000   1041.5989     -50.163996     -38659.957      673.0515      -37986.906      81365.428      14.282348      0.020720469    0.020610653    0.076764054  
    441000   1027.7388     -3602.2486     -38645.749      664.09549     -37981.653      81449.952      14.267527      0.024337615    0.023167523    0.087814605  
    442000   1027.9426      5002.3752     -38659.856      664.22719     -37995.629      81212.894      14.309173      0.020378156    0.018431106    0.080118572  
    443000   1026.9975     -2900.9404     -38647.962      663.61646     -37984.346      81446.873      14.268066      0.021801284    0.022708515    0.079910975  
    444000   1037.2551      854.99732     -38651.377      670.24467     -37981.132      81335.687      14.287571      0.021962428    0.021611584    0.083155598  
    445000   1022.4939     -478.0101      -38644.812      660.70637     -37984.105      81365.628      14.282313      0.020268258    0.021420866    0.087286321  
    446000   1036.7559     -1166.9225     -38654.641      669.92209     -37984.719      81382.891      14.279283      0.02386338     0.021202197    0.079104228  
    447000   1040.095      -1318.4274     -38645.264      672.07973     -37973.184      81421.646      14.272487      0.021681872    0.022956093    0.088569839  
    448000   1024.9355      1938.9359     -38639.362      662.28404     -37977.078      81342.029      14.286457      0.021366421    0.020300807    0.082901632  
    449000   1063.4364      4967.2724     -38637.7        687.16225     -37950.538      81274.664      14.298298      0.022718564    0.020439434    0.075344048  
    450000   1049.1118      131.79989     -38636.287      677.90612     -37958.381      81383.609      14.279158      0.021213523    0.02144101     0.087323266  
    451000   1052.976       3484.7168     -38619.326      680.40305     -37938.923      81341.936      14.286473      0.022482929    0.021128987    0.076817077  
    452000   1040.3087      2080.1483     -38627.049      672.21783     -37954.831      81366.718      14.282122      0.021606764    0.022108172    0.081534083  
    453000   1061.9642     -1178.2688     -38616.297      686.21093     -37930.086      81492.585      14.260063      0.022560992    0.023224966    0.091690826  
    454000   1051.2952     -719.44869     -38624.771      679.31698     -37945.454      81438.866      14.269469      0.023647507    0.022651772    0.080630941  
    455000   1079.0689     -744.42282     -38626.309      697.26351     -37929.045      81405.114      14.275385      0.021276453    0.023150035    0.084398708  
    456000   1052.2301      1010.934      -38625.919      679.92108     -37945.998      81431.503      14.270759      0.022328843    0.022841592    0.087017543  
    457000   1083.5462     -88.24348      -38629.202      700.15664     -37929.045      81435.046      14.270138      0.023581362    0.02237959     0.082100479  
    458000   1073.508       1986.2219     -38621.713      693.67024     -37928.043      81392.714      14.27756       0.021667265    0.022233659    0.086808312  
    459000   1067.8974      124.17467     -38602.425      690.0448      -37912.381      81502.386      14.258348      0.022712888    0.023116784    0.090908977  
    460000   1079.2305     -4738.078      -38607.579      697.36794     -37910.211      81623.864      14.237128      0.024173548    0.02296726     0.093610217  
    461000   1076.3782     -3287.7822     -38628.572      695.52488     -37933.047      81529.283      14.253644      0.022536576    0.022465587    0.091939354  
    462000   1105.209       1191.1196     -38616.835      714.15452     -37902.681      81442.526      14.268828      0.023041158    0.022356329    0.087325483  
[...]
   9086000   304.3907       1173.3768     -39134.08       196.68858     -38937.392      79526.108      14.612677      0.0038174674   0.0043035418   0.0088111988 
   9087000   297.47603      657.20849     -39131.154      192.22052     -38938.933      79558.022      14.606816      0.003887448    0.0042873804   0.012199938  
   9088000   296.37412      125.60078     -39131.232      191.5085      -38939.723      79573.435      14.603987      0.0040122926   0.0046975197   0.014256194  
   9089000   303.01684      1080.9019     -39127.835      195.80084     -38932.034      79553.709      14.607608      0.0039608264   0.0043663944   0.012925232  
   9090000   299.63171     -736.53798     -39133.063      193.61346     -38939.449      79582.083      14.602399      0.0047484449   0.0039377453   0.012068955  
   9091000   301.53476     -685.58066     -39130.063      194.84316     -38935.219      79597.048      14.599654      0.0051816808   0.0043768014   0.012181938  
   9092000   290.20205      1348.1844     -39131.48       187.52028     -38943.96       79533.192      14.611376      0.0041559147   0.004330203    0.010480967  
   9093000   304.09781     -2418.3051     -39131.466      196.49933     -38934.967      79642.534      14.591316      0.0041577068   0.0048913404   0.013772168  
   9094000   302.2876      -200.15463     -39132.507      195.32962     -38937.178      79571.968      14.604256      0.0038877891   0.0044178945   0.014010529  
   9095000   302.45709      829.24879     -39135.332      195.43914     -38939.893      79535.211      14.611005      0.0046618014   0.0038526951   0.011673846  
   9096000   303.76092     -741.01417     -39127.682      196.28164     -38931.4        79609.001      14.597462      0.0049853577   0.0043350864   0.011999234  
   9097000   296.54776      1044.7324     -39131.799      191.6207      -38940.179      79536.699      14.610732      0.0040973435   0.0041776069   0.011775685  
   9098000   301.22809     -661.1492      -39133.577      194.645       -38938.932      79565.169      14.605504      0.0044233469   0.0046714584   0.010097439  
   9099000   305.4688       1493.1893     -39132.548      197.38522     -38935.163      79519.034      14.613977      0.0043547699   0.0043923384   0.0092148507 
   9100000   298.39428      3243.653      -39135.106      192.81387     -38942.292      79465.303      14.623859      0.004027263    0.0038950164   0.011259314  
   9101000   302.51386      1251.444      -39134.319      195.47582     -38938.843      79519.325      14.613924      0.0040358808   0.0036138651   0.013772292  
   9102000   309.82804      245.10142     -39134.879      200.20204     -38934.677      79546.215      14.608984      0.0047934228   0.0038032551   0.010357793  
   9103000   301.96334      354.50065     -39128.325      195.12009     -38933.205      79572.852      14.604094      0.0051060791   0.004684042    0.0091847363 
   9104000   298.24425     -445.62496     -39134.399      192.71693     -38941.683      79571.985      14.604253      0.0043492181   0.0046228588   0.010902211  
   9105000   293.8201       857.48349     -39126.922      189.85816     -38937.063      79550.726      14.608156      0.0043536229   0.0040614827   0.011824021  
   9106000   298.77343      1104.5484     -39134.055      193.05886     -38940.996      79517.509      14.614258      0.0036352071   0.003945142    0.012779677  
   9107000   303.11334      189.35109     -39132.831      195.86319     -38936.967      79558.082      14.606805      0.0038597762   0.0045142865   0.014925298  
   9108000   298.47968      844.77178     -39134.772      192.86905     -38941.903      79521.684      14.613491      0.0040637952   0.003822529    0.013716295  
   9109000   300.37307      1271.7003     -39129.21       194.09251     -38935.117      79541.267      14.609893      0.0044915584   0.0039350067   0.010661771  
   9110000   299.24509     -622.52809     -39131.45       193.36364     -38938.086      79597.252      14.599617      0.0045240508   0.004415881    0.010756917  
   9111000   299.16953      2047.3368     -39130.995      193.31481     -38937.68       79510.067      14.615626      0.0042688444   0.0041022612   0.012289119  
   9112000   301.18905      697.59477     -39133.723      194.61977     -38939.103      79531.385      14.611708      0.0036730798   0.0042032254   0.01411378   
   9113000   299.18576     -593.70257     -39130.006      193.3253      -38936.681      79583.031      14.602226      0.0045636939   0.0040435139   0.012359472  
   9114000   301.05064      1372.6283     -39131.931      194.53034     -38937.401      79523.749      14.613111      0.0041723214   0.0041209415   0.011218425  
   9115000   296.12034      339.08631     -39137.261      191.34452     -38945.916      79525.541      14.612782      0.0045477841   0.0041108342   0.010081847  
   9116000   302.92951     -794.25179     -39130.773      195.7444      -38935.028      79582.065      14.602403      0.004894963    0.004353288    0.0090328154 
   9117000   299.16799      530.3224      -39133.174      193.31382     -38939.861      79545.422      14.60913       0.0040555055   0.0042657249   0.012850239  
   9118000   300.813       -121.67325     -39134.842      194.37677     -38940.465      79552.455      14.607838      0.004043838    0.0041489063   0.015446288  
   9119000   302.6552       756.40319     -39131.87       195.56715     -38936.303      79547.817      14.60869       0.0043200326   0.0040014631   0.012531129  
   9120000   297.07091      1381.365      -39133.858      191.95874     -38941.899      79515.53       14.614622      0.0046275304   0.0040444038   0.0087903706 
   9121000   304.21159      2390.3764     -39128.662      196.57285     -38932.089      79523.147      14.613222      0.0043872199   0.004238944    0.010379952  
   9122000   299.40003     -1178.3262     -39133.827      193.46375     -38940.363      79589.084      14.601115      0.0040679129   0.0043656207   0.011349701  
   9123000   303.79979      1627.5258     -39128.721      196.30676     -38932.414      79519.772      14.613842      0.0042840968   0.0039881681   0.012649033  
   9124000   302.33919     -691.33341     -39131.821      195.36295     -38936.458      79589.689      14.601004      0.0042926858   0.0042223437   0.015966889  
   9125000   291.25594      850.90822     -39134.225      188.20128     -38946.024      79509.109      14.615802      0.0036680494   0.0039145891   0.011656641  
   9126000   300.97505     -194.28776     -39132.104      194.48149     -38937.623      79569.937      14.604629      0.0046046548   0.0043232111   0.0087185971 
   9127000   297.24294      885.27047     -39134.204      192.0699      -38942.134      79532.31       14.611538      0.004768554    0.0043241893   0.0088913181 
   9128000   297.86015      166.20972     -39134.068      192.46873     -38941.599      79549.131      14.608448      0.0040173066   0.0045996718   0.011932411  
   9129000   300.75751      1923.6996     -39134.398      194.34092     -38940.057      79506.018      14.61637       0.003469182    0.0041998548   0.013336846  
   9130000   300.22261      101.276       -39135.146      193.99528     -38941.151      79552.644      14.607803      0.0037610914   0.0041971318   0.014949914  
   9131000   307.92448     -815.91316     -39131.604      198.97201     -38932.632      79593.773      14.600255      0.0048041699   0.0040933211   0.013030944  
   9132000   295.63416     -425.09421     -39132.771      191.03036     -38941.74       79577.623      14.603218      0.0043894636   0.004379898    0.010893471  
   9133000   301.15042     -3045.2621     -39134.153      194.59481     -38939.558      79633.668      14.592941      0.004439862    0.0048316924   0.012114477  
   9134000   300.0947      -3120.9661     -39133.087      193.91263     -38939.174      79642.481      14.591326      0.0048379894   0.0043458871   0.01432065   
   9135000   294.99908     -2810.4033     -39131.69       190.61999     -38941.07       79638.875      14.591986      0.0041737018   0.0044772119   0.01580747   
   9136000   294.43694      264.08361     -39131.529      190.25675     -38941.273      79561.54       14.60617       0.0040231253   0.0046597249   0.013288042  
   9137000   299.8852      -1251.3172     -39135.653      193.77726     -38941.876      79577.214      14.603293      0.0045063057   0.0046656524   0.011137137  
   9138000   300.03504      794.95717     -39131.425      193.87408     -38937.551      79552.979      14.607742      0.0051626494   0.0041423427   0.0097427514 
   9139000   301.48093     -860.68244     -39132.991      194.80837     -38938.183      79579.73       14.602831      0.0045120815   0.0044600602   0.010485016  
   9140000   298.7306      -881.46101     -39132.604      193.03119     -38939.573      79579.612      14.602853      0.0038999683   0.0046771617   0.013130752  
   9141000   300.80025     -1543.2999     -39133.906      194.36854     -38939.537      79594.04       14.600206      0.0042419296   0.0048008167   0.014733248  
   9142000   297.31864     -1156.7401     -39131.001      192.11882     -38938.883      79593.048      14.600388      0.0045077983   0.0036883975   0.015782727  
   9143000   296.46952      51.586094     -39135.416      191.57014     -38943.846      79545.917      14.609039      0.0045559455   0.0037885385   0.010832824  
   9144000   301.93399      16.880306     -39131.574      195.10113     -38936.473      79558.281      14.606768      0.0044329739   0.0044032557   0.011089971  
   9145000   297.65937     -3007.7662     -39129.995      192.33899     -38937.656      79646.93       14.590511      0.0045326573   0.0048551219   0.013609779  
   9146000   295.65533     -1092.8835     -39138.173      191.04403     -38947.129      79573.787      14.603922      0.003943808    0.0044942882   0.011470354  
   9147000   303.2222      -2578.0775     -39131.987      195.93353     -38936.053      79632.055      14.593236      0.0042731097   0.0046446126   0.013084666  
   9148000   304.32597     -252.42571     -39133.229      196.64676     -38936.582      79563.487      14.605813      0.0043951064   0.0038830277   0.012570472  
   9149000   302.51432      1825.9537     -39132.374      195.47612     -38936.898      79519.777      14.613841      0.0046261612   0.0036058004   0.010687914  
   9150000   299.57552      576.63137     -39132.341      193.57715     -38938.764      79550.813      14.608139      0.0045338071   0.0042758832   0.010754588  
   9151000   296.70764      67.372323     -39135.264      191.72401     -38943.54       79559.183      14.606603      0.0036944042   0.0045358168   0.011489409  
   9152000   302.70509     -1795.4561     -39132.214      195.59939     -38936.615      79620.419      14.595369      0.0040151316   0.0046150864   0.014577483  
   9153000   295.72861      1091.149      -39132.105      191.09139     -38941.014      79547.768      14.608699      0.0042463397   0.0041149129   0.012822956  
   9154000   304.82341      799.0608      -39128.301      196.96819     -38931.333      79560.86       14.606295      0.0045113506   0.0038307306   0.012977365  
   9155000   298.55887     -1516.511      -39133.876      192.92022     -38940.956      79602.313      14.598689      0.0051647547   0.0039213498   0.011393932  
   9156000   303.22578     -2159.3386     -39131.715      195.93584     -38935.779      79625.543      14.59443       0.0048314487   0.0044270001   0.012250004  
   9157000   296.63422      141.42181     -39132.993      191.67657     -38941.316      79560.137      14.606427      0.0044472718   0.0039290701   0.011267273  
   9158000   302.40116      366.72645     -39133.988      195.403       -38938.585      79551.686      14.607979      0.0038133226   0.0040147135   0.013727709  
   9159000   295.81286      3297.8764     -39135.617      191.14583     -38944.472      79456.281      14.625519      0.0034856482   0.0040639608   0.01229651   
   9160000   302.74775     -739.31751     -39132.341      195.62695     -38936.714      79578.31       14.603092      0.0043120416   0.0039716491   0.014030467  
   9161000   300.55298      649.07509     -39133.968      194.20876     -38939.759      79535.167      14.611013      0.004369902    0.0038677283   0.010774971  
   9162000   305.41834     -1172.0137     -39131.009      197.35261     -38933.656      79591.045      14.600755      0.0046848654   0.004119345    0.011328777  
   9163000   302.08129      841.06746     -39131.699      195.19631     -38936.503      79542.079      14.609744      0.0044124882   0.004137726    0.010895802  
   9164000   304.82895      1189.5105     -39135.648      196.97177     -38938.676      79515.421      14.614642      0.0040055673   0.0041951393   0.010629409  
   9165000   298.37733      1644.9293     -39135.754      192.80291     -38942.951      79501.753      14.617154      0.003888076    0.0037909137   0.013790705  
   9166000   301.08628      246.10906     -39131.127      194.55336     -38936.574      79569.6        14.60469       0.0039971331   0.0039698211   0.014916646  
   9167000   295.22966      1812.1019     -39133.734      190.76898     -38942.965      79517.753      14.614213      0.0041595858   0.0039459867   0.01072092   
   9168000   297.8241      -2058.3363     -39130.738      192.44544     -38938.292      79617.587      14.595888      0.0042793051   0.0046035401   0.011872434  
   9169000   297.71766      895.6026      -39135.768      192.37666     -38943.391      79524.741      14.612929      0.003553861    0.0045874503   0.011374385  
   9170000   297.00838     -850.20521     -39130.492      191.91834     -38938.573      79589.364      14.601064      0.0038451738   0.0045347756   0.014553132  
   9171000   301.23853     -708.64705     -39130.408      194.65174     -38935.756      79580.395      14.602709      0.0042940386   0.0041185942   0.012389233  
   9172000   297.19139     -351.44497     -39133.149      192.0366      -38941.113      79575.656      14.603579      0.0043738858   0.0039001714   0.011707394  
   9173000   297.40183      1280.2018     -39133.141      192.17257     -38940.969      79519.092      14.613967      0.0046210378   0.0036099131   0.012143451  
   9174000   304.08464     -1738.9866     -39134.242      196.49082     -38937.751      79600.617      14.599         0.0040649601   0.0039592268   0.015471974  
   9175000   299.54598     -214.40594     -39136.712      193.55807     -38943.154      79554.418      14.607478      0.0040038237   0.0041582414   0.011714204  
   9176000   304.31353      814.45499     -39132.842      196.63872     -38936.204      79543.365      14.609507      0.0042769701   0.0040481571   0.010904844  
   9177000   300.22056     -425.30106     -39134.823      193.99396     -38940.829      79562.581      14.605979      0.0039053107   0.0045367016   0.011598694  
   9178000   296.78554      387.69325     -39132.818      191.77435     -38941.044      79552.914      14.607754      0.0041602427   0.0036604813   0.015172087  
   9179000   303.51537      187.65715     -39133.42       196.12297     -38937.297      79551.857      14.607948      0.0042790488   0.0038600843   0.012571686  
   9180000   292.44155      216.06181     -39135.591      188.96739     -38946.623      79547.211      14.608801      0.0048273366   0.0040788781   0.0098254909 
   9181000   299.09722     -1915.3286     -39130.147      193.26809     -38936.879      79621.289      14.595209      0.004620699    0.0050351316   0.010278613  
   9182000   300.88199      32.43612      -39131.587      194.42135     -38937.165      79552.069      14.607909      0.0035532904   0.0045093731   0.012373621  
   9183000   296.2296       1704.6499     -39133.326      191.41511     -38941.911      79505.558      14.616454      0.0037751741   0.0042185243   0.01221728   
   9184000   298.23918      423.6165      -39130.329      192.71365     -38937.616      79565.758      14.605396      0.0045327146   0.0041054339   0.012871928  
   9185000   300.1771       257.95393     -39135.382      193.96588     -38941.416      79544.822      14.60924       0.0048113139   0.0035224721   0.01086254   
   9186000   302.34436     -112.10671     -39130.098      195.3663      -38934.732      79580.944      14.602609      0.0047242893   0.0040765066   0.0093763016 
   9187000   306.9563       856.89149     -39135.617      198.3464      -38937.27       79526.114      14.612676      0.0039371235   0.0042724647   0.010854715  
   9188000   303.11464      143.63239     -39132.617      195.86403     -38936.753      79555.406      14.607296      0.0041348492   0.0044643048   0.011458832  
   9189000   299.67287      341.01136     -39132.175      193.64006     -38938.535      79563.511      14.605808      0.003998503    0.0041867019   0.0126241    
   9190000   300.69436     -1764.0193     -39129.139      194.30011     -38934.839      79625.43       14.59445       0.0042586408   0.0042609991   0.01585476   
   9191000   293.69219      154.79575     -39132.881      189.77551     -38943.105      79547.979      14.60866       0.003813924    0.0040271255   0.014249411  
   9192000   298.8501       2220.4411     -39131.785      193.10841     -38938.676      79507.505      14.616097      0.0040678887   0.0038002125   0.011701501  
   9193000   300.5006       3455.24       -39130.956      194.17491     -38936.781      79477.957      14.621531      0.0042103646   0.0035645313   0.010533977  
   9194000   305.44672      446.23898     -39133.324      197.37095     -38935.953      79554.775      14.607412      0.0041310685   0.0042240471   0.010614984  
   9195000   301.14939     -192.27324     -39133.354      194.59415     -38938.76       79560.485      14.606364      0.0037014612   0.0049452272   0.012485965  
   9196000   296.59079     -1530.5181     -39133.361      191.6485      -38941.713      79592.727      14.600447      0.0041368818   0.0044660467   0.013503441  
   9197000   301.09022      574.07105     -39130.778      194.55591     -38936.222      79550.494      14.608198      0.0044776069   0.0037819951   0.012847629  
   9198000   301.05159     -233.62756     -39130.631      194.53095     -38936.1        79572.393      14.604178      0.0046125138   0.0040290859   0.010864614  
   9199000   299.99949     -164.5231      -39135.466      193.85111     -38941.614      79556.061      14.607176      0.004646996    0.0043594865   0.009843789  
   9200000   300.28609     -368.88111     -39130.284      194.0363      -38936.248      79582.542      14.602315      0.00461654     0.0043130457   0.011898154  
Loop time of 488.253 on 40 procs for 1000000 steps with 5000 atoms

Performance: 176.958 ns/day, 0.136 hours/ns, 2048.120 timesteps/s, 10.241 Matom-step/s
92.8% CPU use with 40 MPI tasks x 1 OpenMP threads

MPI task timing breakdown:
Section |  min time  |  avg time  |  max time  |%varavg| %total
---------------------------------------------------------------
Pair    | 287.6      | 299.74     | 309.01     |  32.6 | 61.39
Neigh   | 0          | 0          | 0          |   0.0 |  0.00
Comm    | 115.38     | 125.33     | 137.17     |  49.2 | 25.67
Output  | 0.26177    | 0.31881    | 0.38732    |   6.0 |  0.07
Modify  | 48.904     | 50.9       | 53.993     |  20.7 | 10.42
Other   |            | 11.96      |            |       |  2.45

Nlocal:            125 ave         135 max         117 min
Histogram: 4 6 2 7 3 5 6 3 3 1
Nghost:           1142 ave        1150 max        1132 min
Histogram: 1 3 3 6 4 4 7 2 6 4
Neighs:        6997.75 ave        7423 max        6521 min
Histogram: 3 3 4 3 5 7 3 2 6 4

Total # of neighbors = 279910
Ave neighs/atom = 55.982
Neighbor list builds = 0
Dangerous builds = 0
	unfix           ffinal


# ----- FINAL OUTPUT -----
	write_data      annealed_W-Mo.data
System init for write_data ...




Total wall time: 1:18:01
