

# Styles
	units        metal
	atom_style   atomic
	pair_style   eam/fs

# Neighbour list
	neighbor        2.0 bin
	neigh_modify    check yes


# Boundary conditions
	boundary p p p


# ----------------- Atom Definition Section -----------------

read_data "W-Mo_en_min.data"
Reading data file ...
  orthogonal box = (0.046127475 0.046127475 0.11531869) to (31.603873 31.603873 79.009681)
  2 by 4 by 5 MPI processor grid
  reading atom labelmap ...
  reading atoms ...
  5000 atoms
  reading velocities ...
  5000 velocities
  read_data CPU = 0.039 seconds

# ----------------- Settings Section -----------------

include "annealing.in.settings"
# ----- SETTINGS -----
# Forcefield
	pair_coeff * * W-Mo.eam.fs W Mo

# Collection of atoms
	group alloy type  1 2
5000 atoms in group alloy


# ----------------- Run Section -----------------

include "annealing.in.run"
# Thermo output
	thermo          1000
	thermo_style    custom step temp press pe ke etotal vol density
	thermo_modify   flush yes

# Dump configuration
	dump            d1 all custom 50000 annealed_system.dump id type x y z xu yu zu vx vy vz
	dump_modify     d1 element W Mo


# ----- INITIAL EQUILIBRATION AT Ti -----
	velocity        all create ${Ti} 872392 dist gaussian
	velocity        all create 300 872392 dist gaussian
	fix             feq all npt temp ${Ti} ${Ti} ${tdamp} iso ${press} ${press} ${pdamp}
	fix             feq all npt temp 300 ${Ti} ${tdamp} iso ${press} ${press} ${pdamp}
	fix             feq all npt temp 300 300 ${tdamp} iso ${press} ${press} ${pdamp}
	fix             feq all npt temp 300 300 0.1 iso ${press} ${press} ${pdamp}
	fix             feq all npt temp 300 300 0.1 iso 1 ${press} ${pdamp}
	fix             feq all npt temp 300 300 0.1 iso 1 1 ${pdamp}
	fix             feq all npt temp 300 300 0.1 iso 1 1 1
	run             200000    # 200 ps
Neighbor list info ...
  update: every = 1 steps, delay = 0 steps, check = yes
  max neighbors/atom: 2000, page size: 100000
  master list distance cutoff = 7.3
  ghost atom cutoff = 7.3
  binsize = 3.65, bins = 9 9 22
  1 neighbor lists, perpetual/occasional/extra = 1 0 0
  (1) pair eam/fs, perpetual
      attributes: half, newton on
      pair build: half/bin/atomonly/newton
      stencil: half/bin/3d
      bin: standard
Per MPI rank memory allocation (min/avg/max) = 3.332 | 3.335 | 3.34 Mbytes
   Step          Temp          Press          PotEng         KinEng         TotEng         Volume        Density    
         0   300            2635.34       -39329.129      193.85144     -39135.277      78570.207      14.790458    
      1000   312.26616      804.77991     -39125.83       201.77748     -38924.053      79563.077      14.605888    
      2000   295.64515      1312.4756     -39134.268      191.03746     -38943.231      79515.88       14.614557    
      3000   300.72769     -490.5344      -39131.136      194.32165     -38936.815      79579.766      14.602825    
      4000   300.67775      936.04927     -39133.568      194.28938     -38939.279      79533.423      14.611334    
      5000   295.09879      763.03877     -39131.768      190.68442     -38941.083      79533.584      14.611304    
      6000   302.7343      -227.06307     -39131.198      195.61826     -38935.58       79572.296      14.604196    
      7000   296.69069     -1252.6455     -39134.116      191.71306     -38942.403      79590.116      14.600926    
      8000   305.54073      1759.378      -39133.352      197.4317      -38935.92       79513.313      14.615029    
      9000   297.91858      312.41809     -39131.963      192.50649     -38939.457      79544.756      14.609252    
     10000   301.11635      2157.6069     -39130.754      194.5728      -38936.181      79508.732      14.615871    
     11000   302.84583      2470.9192     -39132.233      195.69033     -38936.543      79485.223      14.620194    
     12000   293.84332     -513.68185     -39132.88       189.87317     -38943.007      79569.761      14.604661    
     13000   296.50088     -790.14233     -39129.376      191.5904      -38937.785      79593.196      14.600361    
     14000   295.2786       54.627956     -39133.899      190.80061     -38943.098      79553.387      14.607667    
     15000   303.21156      2067.392      -39133.439      195.92666     -38937.512      79503.262      14.616877    
     16000   295.62929      348.38936     -39131.115      191.02721     -38940.088      79551.051      14.608096    
     17000   305.73048      1967.1544     -39132.81       197.55431     -38935.256      79508.445      14.615924    
     18000   300.71611     -437.40287     -39133.594      194.31417     -38939.28       79583.207      14.602193    
     19000   302.64758      642.44781     -39129.641      195.56223     -38934.078      79556.548      14.607086    
     20000   301.50361     -1256.4514     -39131.701      194.82303     -38936.878      79601.39       14.598858    
     21000   295.66595     -209.93065     -39133.055      191.0509      -38942.004      79568.881      14.604822    
     22000   303.172        355.81317     -39130.785      195.90109     -38934.884      79555.804      14.607223    
     23000   300.79191      857.47233     -39132.496      194.36315     -38938.133      79531.107      14.611759    
     24000   296.92964      2694.8686     -39134.367      191.86746     -38942.499      79492.858      14.61879     
     25000   298.07302      462.19692     -39130.883      192.60628     -38938.276      79552.89       14.607758    
     26000   296.05955      441.80375     -39131.647      191.30524     -38940.342      79561.426      14.606191    
     27000   305.36409      871.27011     -39128.851      197.31756     -38931.534      79560.123      14.60643     
     28000   299.10466     -709.40182     -39133.479      193.27289     -38940.206      79576.959      14.60334     
     29000   300.77545     -1671.1963     -39134.59       194.35251     -38940.238      79592.493      14.60049     
     30000   307.43249     -606.13261     -39136.209      198.6541      -38937.555      79572.061      14.604239    
     31000   299.81189     -1903.4082     -39134.148      193.72989     -38940.418      79599.088      14.59928     
     32000   297.55582      596.47084     -39130.982      192.27208     -38938.71       79554.772      14.607413    
     33000   295.43585     -538.19815     -39136.669      190.90221     -38945.767      79553.065      14.607726    
     34000   299.62283      380.37611     -39131.414      193.60772     -38937.806      79553.438      14.607657    
     35000   290.36695      1287.6725     -39135.44       187.62683     -38947.813      79515.865      14.61456     
     36000   301.29686     -1593.596      -39132.151      194.68944     -38937.461      79607.568      14.597725    
     37000   294.98126     -1373.2206     -39133.825      190.60847     -38943.217      79588.054      14.601304    
     38000   301.81134     -5160.9414     -39132.279      195.02188     -38937.257      79697.021      14.58134     
     39000   297.19247     -2462.0856     -39132.277      192.03729     -38940.24       79623.766      14.594755    
     40000   296.53086     -1134.8326     -39134.051      191.60978     -38942.441      79586.646      14.601562    
     41000   297.83165      516.69618     -39130.116      192.45031     -38937.665      79561.455      14.606186    
     42000   305.16081      2495.8215     -39135.15       197.18621     -38937.964      79464.586      14.623991    
     43000   305.60518     -595.87345     -39130.689      197.47334     -38933.215      79582.186      14.602381    
     44000   297.51035      183.48939     -39132.027      192.2427      -38939.785      79568.395      14.604912    
     45000   301.40422     -1629.0698     -39129.523      194.75881     -38934.765      79617.077      14.595981    
     46000   300.34196     -451.5885      -39130.281      194.0724      -38936.209      79584.471      14.601961    
     47000   294.63266     -44.562937     -39132.917      190.38322     -38942.533      79564.182      14.605685    
     48000   296.28444     -1304.9189     -39129.631      191.45055     -38938.181      79604.812      14.59823     
     49000   295.96829     -36.955783     -39133.545      191.24626     -38942.299      79559.155      14.606608    
     50000   300.47172     -539.46362     -39132.797      194.15625     -38938.641      79571.199      14.604397    
     51000   294.19301      2055.1146     -39133.575      190.09913     -38943.476      79496.304      14.618156    
     52000   303.10969     -781.57344     -39132.12       195.86084     -38936.259      79580.08       14.602767    
     53000   295.72832     -1000.4245     -39131.16       191.0912      -38940.069      79594.76       14.600074    
     54000   299.54028     -501.46996     -39130.65       193.55438     -38937.096      79583.053      14.602222    
     55000   302.65443     -2057.5138     -39134.125      195.56666     -38938.558      79602.36       14.59868     
     56000   301.50195      1761.7271     -39130.491      194.82196     -38935.669      79524.071      14.613052    
     57000   295.87571      1081.5063     -39133.764      191.18644     -38942.578      79512.37       14.615202    
     58000   299.37424      1964.8286     -39128.598      193.44709     -38935.151      79515.07       14.614706    
     59000   298.27154     -820.98695     -39134.273      192.73456     -38941.538      79589.414      14.601054    
     60000   302.83075     -1041.373      -39134.313      195.68059     -38938.632      79587.983      14.601317    
     61000   302.76352      1024.9884     -39132.932      195.63715     -38937.295      79534.443      14.611146    
     62000   301.46041      263.87088     -39135.824      194.79511     -38941.029      79543.968      14.609396    
     63000   304.01482      1221.6773     -39130.753      196.4457      -38934.307      79527.415      14.612437    
     64000   301.35264      1755.4658     -39133.905      194.72548     -38939.18       79508.317      14.615947    
     65000   305.83279      547.39934     -39133.745      197.62042     -38936.125      79543.524      14.609478    
     66000   295.90045      2729.6245     -39132.47       191.20243     -38941.267      79483.657      14.620482    
     67000   298.09663      1148.7453     -39129.191      192.62154     -38936.57       79555.245      14.607326    
     68000   298.9783       177.61095     -39133.401      193.19125     -38940.209      79551.878      14.607944    
     69000   296.13271      400.06697     -39132.44       191.35251     -38941.087      79540.135      14.610101    
     70000   303.94299     -512.76536     -39129.972      196.39929     -38933.573      79592.692      14.600453    
     71000   299.2026      -920.06602     -39131.395      193.33618     -38938.059      79583.469      14.602145    
     72000   297.98575      812.88253     -39132.189      192.54989     -38939.639      79534.681      14.611102    
     73000   301.27562      1926.0572     -39128.763      194.67571     -38934.087      79534.079      14.611213    
     74000   299.07367      1745.6083     -39134.597      193.25287     -38941.344      79491.627      14.619016    
     75000   299.69346      1034.8003     -39128.789      193.65336     -38935.136      79549.428      14.608394    
     76000   297.30818     -1685.3456     -39132.051      192.11206     -38939.939      79596.931      14.599676    
     77000   301.97087     -474.92613     -39132.797      195.12496     -38937.672      79578.911      14.602982    
     78000   294.49031      179.42633     -39133.689      190.29124     -38943.398      79536.184      14.610826    
     79000   298.42184     -148.31863     -39132.299      192.83168     -38939.468      79571.806      14.604286    
     80000   298.70344     -589.70128     -39132.071      193.01364     -38939.057      79573.887      14.603904    
     81000   296.00127     -487.14177     -39134.4        191.26758     -38943.133      79563.174      14.60587     
     82000   300.79028      1199.345      -39134.962      194.3621      -38940.599      79522.98       14.613252    
     83000   301.7824       988.94254     -39133.014      195.00318     -38938.011      79530.059      14.611952    
     84000   303.10635     -981.17989     -39134.954      195.85867     -38939.096      79570.843      14.604462    
     85000   306.65782     -1439.5684     -39133.36       198.15354     -38935.207      79603.901      14.598397    
     86000   298.51115      18.741801     -39132.019      192.88939     -38939.13       79551.966      14.607928    
     87000   301.93967     -702.95349     -39132.319      195.1048      -38937.215      79590.575      14.600842    
     88000   301.51731     -1062.9682     -39137.539      194.83188     -38942.707      79569.862      14.604642    
     89000   302.039       -107.57281     -39129.821      195.16898     -38934.652      79579.97       14.602787    
     90000   305.82427      406.75222     -39133.574      197.61491     -38935.96       79556.117      14.607166    
     91000   296.35775      173.99254     -39131.04       191.49792     -38939.542      79569.994      14.604618    
     92000   301.90883      1291.2834     -39127.973      195.08487     -38932.888      79538.811      14.610344    
     93000   305.3225      -646.7071      -39134.296      197.29069     -38937.005      79582.196      14.602379    
     94000   302.12946     -619.19186     -39133.072      195.22743     -38937.844      79569.418      14.604724    
     95000   304.5883       1388.8688     -39135.32       196.81627     -38938.503      79524.279      14.613014    
     96000   302.97922      2043.2113     -39137.195      195.77652     -38941.419      79482.762      14.620647    
     97000   304.19742      2217.9891     -39133.175      196.56369     -38936.611      79501.561      14.617189    
     98000   302.69651     -1387.4159     -39129.04       195.59385     -38933.446      79606.518      14.597917    
     99000   298.73326      2585.5745     -39133.87       193.03291     -38940.837      79481.855      14.620813    
    100000   303.58307     -1235.8496     -39126.806      196.16672     -38930.64       79611.175      14.597064    
    101000   300.47166      989.99037     -39137.213      194.15621     -38943.057      79519.305      14.613928    
    102000   304.34775      303.08392     -39132.37       196.66083     -38935.709      79557.768      14.606862    
    103000   297.03459      871.45268     -39130.602      191.93528     -38938.667      79545.353      14.609142    
    104000   305.49275      816.96964     -39134.972      197.4007      -38937.572      79536.634      14.610744    
    105000   296.33817      1930.724      -39132.72       191.48527     -38941.235      79504.465      14.616655    
    106000   305.94493     -308.23323     -39132.576      197.69289     -38934.884      79572.561      14.604147    
    107000   304.76753      1238.3197     -39134.931      196.93208     -38937.999      79518.465      14.614082    
    108000   293.35632      277.20085     -39134.813      189.55848     -38945.254      79541.753      14.609803    
    109000   298.53599      913.36901     -39129.73       192.90544     -38936.824      79536.699      14.610732    
    110000   298.57151     -11.639037     -39133.879      192.92839     -38940.951      79547.061      14.608829    
    111000   298.77106     -1968.6561     -39131.58       193.05733     -38938.523      79619.361      14.595563    
    112000   299.08015     -1653.3582     -39134.215      193.25706     -38940.958      79593.672      14.600273    
    113000   305.893       -547.69745     -39131.349      197.65933     -38933.689      79578.698      14.603021    
    114000   296.34972     -1723.9877     -39130.312      191.49273     -38938.819      79613.179      14.596696    
    115000   296.34429      107.82525     -39134.618      191.48923     -38943.129      79540.866      14.609966    
    116000   302.64693      812.14896     -39131.869      195.56181     -38936.307      79540.664      14.610004    
    117000   298.09147     -1949.1457     -39132.534      192.6182      -38939.916      79612.059      14.596901    
    118000   310.56884      1838.144      -39132.574      200.68072     -38931.894      79513.895      14.614922    
    119000   299.12735      1405.7643     -39133.842      193.28756     -38940.554      79512.257      14.615223    
    120000   300.86694     -122.9099      -39134.048      194.41163     -38939.636      79554.447      14.607472    
    121000   298.71247     -464.60839     -39132.462      193.01948     -38939.442      79574.939      14.603711    
    122000   293.93609     -1617.8533     -39132.881      189.93311     -38942.948      79596.075      14.599833    
    123000   300.51945      1264.7308     -39130.084      194.18709     -38935.897      79538.452      14.61041     
    124000   296.67075      1177.8849     -39132.035      191.70017     -38940.335      79540.139      14.6101      
    125000   293.41004      1080.5739     -39132.292      189.5932      -38942.698      79527.472      14.612427    
    126000   303.9553       911.94593     -39133.559      196.40724     -38937.152      79535.989      14.610862    
    127000   297.21719     -714.71422     -39136.573      192.05327     -38944.52       79564.152      14.605691    
    128000   302.14658     -279.61731     -39133.482      195.2385      -38938.244      79576.156      14.603487    
    129000   304.65229      1241.0975     -39130.882      196.85762     -38934.025      79543.897      14.60941     
    130000   297.54679     -834.04985     -39132.891      192.26624     -38940.625      79590.457      14.600863    
    131000   306.23731      1700.0354     -39132.116      197.88181     -38934.235      79530.022      14.611958    
    132000   298.50998      1011.4909     -39133.409      192.88863     -38940.52       79530.021      14.611959    
    133000   309.90619      2195.8285     -39131.796      200.25254     -38931.543      79512.42       14.615193    
    134000   302.17141      1309.026      -39135.085      195.25454     -38939.83       79512.256      14.615223    
    135000   298.0653      -413.11321     -39131.955      192.60129     -38939.353      79578.936      14.602977    
    136000   299.74         830.66022     -39135.399      193.68343     -38941.715      79529.02       14.612143    
    137000   298.74814      2805.6243     -39133.344      193.04252     -38940.302      79484.034      14.620413    
    138000   304.7597       132.7507      -39131.718      196.92702     -38934.791      79569.262      14.604753    
    139000   300.16032     -201.04132     -39135.875      193.95503     -38941.92       79551.359      14.608039    
    140000   302.8012       1032.7372     -39130.782      195.66149     -38935.12       79537.456      14.610593    
    141000   297.11002     -838.84283     -39133.296      191.98402     -38941.312      79585.651      14.601745    
    142000   300.10393     -2792.1207     -39131.921      193.91859     -38938.003      79640.407      14.591706    
    143000   303.31142      357.4782      -39134.204      195.99119     -38938.212      79550.876      14.608128    
    144000   294.27001     -2661.4348     -39134.194      190.14888     -38944.045      79619.523      14.595533    
    145000   299.46093      129.36574     -39132.398      193.50311     -38938.895      79567.517      14.605073    
    146000   298.24706     -917.21077     -39133.971      192.71874     -38941.252      79586.883      14.601519    
    147000   303.30337      715.82928     -39133.709      195.98599     -38937.723      79540.08       14.610111    
    148000   304.35569      362.48115     -39132.071      196.66596     -38935.405      79542.244      14.609713    
    149000   291.36931      453.19344     -39133.534      188.27453     -38945.26       79546.205      14.608986    
    150000   298.19625     -288.91211     -39129.087      192.68591     -38936.401      79592.053      14.60057     
    151000   301.08858      3021.2877     -39133.426      194.55485     -38938.871      79487.567      14.619763    
    152000   298.5977      -103.32686     -39130.642      192.94531     -38937.697      79573.513      14.603972    
    153000   301.09228      1163.866      -39134.076      194.55724     -38939.519      79529.956      14.611971    
    154000   305.9231       660.42647     -39131.22       197.67878     -38933.541      79543.324      14.609515    
    155000   297.59412      1301.5926     -39130.626      192.29683     -38938.329      79533.611      14.611299    
    156000   299.36979      555.39569     -39139.666      193.44421     -38946.222      79513.044      14.615078    
    157000   307.76503      2725.5616     -39136.404      198.86898     -38937.535      79481          14.620971    
    158000   300.79575     -866.28406     -39128.318      194.36563     -38933.953      79609.859      14.597305    
    159000   299.27018     -1072.9851     -39134.399      193.37985     -38941.019      79579.485      14.602876    
    160000   301.28233      950.86823     -39133.933      194.68004     -38939.252      79523.924      14.613079    
    161000   300.73364      2085.0769     -39134.927      194.3255      -38940.602      79486.176      14.620019    
    162000   296.86954     -651.10833     -39129.379      191.82862     -38937.55       79602.586      14.598638    
    163000   300.26746     -932.15074     -39127.936      194.02427     -38933.911      79611.54       14.596997    
    164000   297.35591     -2461.3161     -39132.486      192.14291     -38940.343      79628.025      14.593975    
    165000   307.42954      272.71366     -39133.208      198.65219     -38934.556      79555.164      14.607341    
    166000   301.27334      2272.2694     -39134.519      194.67424     -38939.845      79490.86       14.619157    
    167000   303.43972     -2270.6186     -39131.004      196.07409     -38934.93       79631.24       14.593385    
    168000   298.51677      1521.353      -39135.386      192.89302     -38942.493      79507.393      14.616117    
    169000   305.97686     -466.21326     -39132.242      197.71352     -38934.529      79572.154      14.604222    
    170000   301.97118      1048.173      -39135.803      195.12516     -38940.678      79531.071      14.611766    
    171000   303.69551     -512.59        -39130.278      196.23937     -38934.038      79587.184      14.601464    
    172000   302.60352     -323.26806     -39134.902      195.53376     -38939.368      79565.893      14.605371    
    173000   298.95349     -274.24709     -39131.289      193.17522     -38938.114      79563.479      14.605814    
    174000   300.5169      -530.57441     -39135.482      194.18545     -38941.296      79555.356      14.607305    
    175000   302.45002     -1328.7735     -39129.59       195.43457     -38934.155      79613.466      14.596643    
    176000   302.26311     -924.8729      -39129.964      195.3138      -38934.65       79598.869      14.59932     
    177000   298.15999     -957.81252     -39131.831      192.66248     -38939.168      79580.051      14.602772    
    178000   296.46236     -646.31136     -39130.379      191.56552     -38938.814      79588.919      14.601145    
    179000   296.63624      300.92454     -39129.906      191.67787     -38938.228      79569.387      14.604729    
    180000   293.95636      839.64749     -39132.694      189.94621     -38942.747      79546.587      14.608916    
    181000   299.87839     -433.08759     -39129.622      193.77286     -38935.849      79574.616      14.60377     
    182000   298.12866     -427.0674      -39132.254      192.64224     -38939.612      79580.304      14.602726    
    183000   295.961       -182.60074     -39131.485      191.24155     -38940.243      79570.889      14.604454    
    184000   295.5863       281.99582     -39130.273      190.99943     -38939.274      79552.861      14.607764    
    185000   303.63495     -578.47762     -39132.95       196.20024     -38936.75       79571.134      14.604409    
    186000   299.45943     -3682.3464     -39134.686      193.50214     -38941.184      79653.072      14.589385    
    187000   301.85319     -0.86911361    -39132.366      195.04892     -38937.317      79559.32       14.606577    
    188000   295.1286       760.35747     -39131.55       190.70368     -38940.846      79553.633      14.607622    
    189000   301.76896      1956.5103     -39133.247      194.99449     -38938.253      79519.387      14.613913    
    190000   307.93045     -0.63679038    -39135.723      198.97587     -38936.747      79540.865      14.609966    
    191000   293.8635       707.23506     -39134.181      189.88621     -38944.294      79541.078      14.609927    
    192000   298.08876     -306.22409     -39131.877      192.61645     -38939.26       79568.956      14.604809    
    193000   299.00643      1358.7861     -39130.683      193.20942     -38937.473      79527.073      14.6125      
    194000   299.05745      948.92969     -39130.839      193.24239     -38937.596      79540.077      14.610111    
    195000   297.38645     -137.11959     -39127.798      192.16264     -38935.635      79576.274      14.603465    
    196000   301.88774      350.93546     -39129.639      195.07124     -38934.568      79565.303      14.605479    
    197000   299.55303     -325.29994     -39133.258      193.56262     -38939.695      79561.621      14.606155    
    198000   300.14439      84.328476     -39127.883      193.94474     -38933.938      79585.456      14.601781    
    199000   300.67778     -384.98709     -39133.857      194.2894      -38939.567      79561.309      14.606212    
    200000   307.38512      1324.9027     -39133.434      198.62349     -38934.81       79531.702      14.61165     
Loop time of 104.063 on 40 procs for 200000 steps with 5000 atoms

Performance: 166.054 ns/day, 0.145 hours/ns, 1921.918 timesteps/s, 9.610 Matom-step/s
93.0% CPU use with 40 MPI tasks x 1 OpenMP threads

MPI task timing breakdown:
Section |  min time  |  avg time  |  max time  |%varavg| %total
---------------------------------------------------------------
Pair    | 59.335     | 62.193     | 64.706     |  16.3 | 59.77
Neigh   | 0          | 0          | 0          |   0.0 |  0.00
Comm    | 25.553     | 27.97      | 30.61      |  23.8 | 26.88
Output  | 0.013237   | 0.016017   | 0.052387   |   4.7 |  0.02
Modify  | 10.908     | 11.361     | 12.045     |   7.4 | 10.92
Other   |            | 2.523      |            |       |  2.42

Nlocal:            125 ave         136 max         113 min
Histogram: 1 3 5 3 8 4 7 2 3 4
Nghost:           1142 ave        1154 max        1131 min
Histogram: 4 3 2 7 4 8 3 5 3 1
Neighs:           7000 ave        7628 max        6403 min
Histogram: 3 4 2 6 5 9 4 0 4 3

Total # of neighbors = 280000
Ave neighs/atom = 56
Neighbor list builds = 0
Dangerous builds = 0
	unfix           feq


# ----- HEATING FROM Ti TO Thigh -----
	fix             fheat all npt temp ${Ti} ${Thigh} ${tdamp} iso ${press} ${press} ${pdamp}
	fix             fheat all npt temp 300 ${Thigh} ${tdamp} iso ${press} ${press} ${pdamp}
	fix             fheat all npt temp 300 2300 ${tdamp} iso ${press} ${press} ${pdamp}
	fix             fheat all npt temp 300 2300 0.1 iso ${press} ${press} ${pdamp}
	fix             fheat all npt temp 300 2300 0.1 iso 1 ${press} ${pdamp}
	fix             fheat all npt temp 300 2300 0.1 iso 1 1 ${pdamp}
	fix             fheat all npt temp 300 2300 0.1 iso 1 1 1
	run             1000000   # 1 ns
Per MPI rank memory allocation (min/avg/max) = 4.593 | 4.597 | 4.602 Mbytes
   Step          Temp          Press          PotEng         KinEng         TotEng         Volume        Density    
    200000   307.38512      1324.9027     -39133.434      198.62349     -38934.81       79531.702      14.61165     
    201000   300.97567     -1907.9212     -39135.47       194.48189     -38940.988      79602.315      14.598688    
    202000   301.37754     -752.3917      -39130.208      194.74156     -38935.466      79588.036      14.601307    
    203000   304.51213      426.88319     -39127.654      196.76705     -38930.887      79571.363      14.604367    
    204000   306.83314     -1255.9999     -39123.377      198.26682     -38925.11       79630.153      14.593585    
    205000   312.64687      191.32814     -39123.81       202.02349     -38921.787      79594.245      14.600168    
    206000   315.74636      750.19572     -39121.499      204.02629     -38917.472      79589.989      14.600949    
    207000   307.86166      767.02069     -39118.625      198.93142     -38919.694      79602.123      14.598723    
    208000   307.72222     -1341.0777     -39123.4        198.84132     -38924.558      79639.586      14.591856    
    209000   315.36717      1496.1966     -39118.424      203.78126     -38914.643      79587.535      14.601399    
    210000   319.71898     -2442.8257     -39123.073      206.59328     -38916.48       79667.796      14.586689    
    211000   318.83784      738.10197     -39119.338      206.02391     -38913.314      79594.36       14.600147    
    212000   318.72308     -1071.2342     -39118.981      205.94976     -38913.031      79650.406      14.589874    
    213000   323.44197      2183.5753     -39117.611      208.99897     -38908.612      79567.427      14.605089    
    214000   331.97969     -1234.8127     -39118.256      214.51581     -38903.74       79655.29       14.588979    
    215000   332.06147     -303.8683      -39113.149      214.56865     -38898.58       79653.93       14.589228    
    216000   333.18936      205.78632     -39114.076      215.29746     -38898.779      79632.697      14.593118    
    217000   336.09026     -927.83541     -39119.561      217.17193     -38902.39       79649.16       14.590102    
    218000   334.88443     -1236.816      -39106.367      216.39276     -38889.974      79721.318      14.576896    
    219000   334.99231      628.49633     -39109.57       216.46247     -38893.107      79657.289      14.588613    
    220000   339.26208     -984.22802     -39104.642      219.22147     -38885.42       79723.044      14.576581    
    221000   336.68366     -264.678       -39106.75       217.55537     -38889.194      79687.813      14.583025    
    222000   337.47666      850.95773     -39103.998      218.06779     -38885.93       79672.112      14.585899    
    223000   345.99853     -300.06248     -39098.372      223.57438     -38874.798      79731.928      14.574956    
    224000   349.63156      1124.7765     -39101.873      225.92194     -38875.951      79672.305      14.585864    
    225000   351.919       -1120.2912     -39104.5        227.40002     -38877.1        79713.902      14.578252    
    226000   353.68467      1080.5125     -39100.328      228.54094     -38871.787      79689.53       14.582711    
    227000   354.72875     -2394.3534     -39095.931      229.2156      -38866.716      79795.669      14.563314    
    228000   353.86991     -1339.1565     -39098.082      228.66064     -38869.421      79754.46       14.570839    
    229000   356.60836     -622.79938     -39095.658      230.43015     -38865.228      79755.45       14.570658    
    230000   356.08551     -660.21494     -39095.608      230.0923      -38865.515      79747.129      14.572178    
    231000   368.041       -540.70742     -39094.324      237.81759     -38856.506      79757.322      14.570316    
    232000   358.2933      -1534.0575     -39097.257      231.51891     -38865.738      79759.683      14.569885    
    233000   371.22035      452.61748     -39092.553      239.872       -38852.681      79731.082      14.575111    
    234000   362.51867     -1014.1075     -39088.829      234.24922     -38854.58       79786.264      14.565031    
    235000   373.20469      813.35941     -39086.867      241.15422     -38845.712      79754.587      14.570815    
    236000   374.03013     -969.90433     -39084.654      241.6876      -38842.967      79810.862      14.560542    
    237000   378.77673      1396.0257     -39089.996      244.75471     -38845.241      79722.123      14.576749    
    238000   375.20689      1550.3415     -39082.563      242.44799     -38840.115      79736.596      14.574103    
    239000   377.12391      2507.9488     -39084.388      243.68671     -38840.702      79719.99       14.577139    
    240000   381.99306     -468.43716     -39079.562      246.83302     -38832.729      79821.896      14.558529    
    241000   378.13071     -1114.5114     -39083.125      244.33727     -38838.787      79815.434      14.559708    
    242000   385.55065     -1640.4413     -39075.403      249.13183     -38826.271      79847.399      14.553879    
    243000   379.82354     -1164.7801     -39076.852      245.43113     -38831.421      79840.122      14.555205    
    244000   390.78304     -1583.5783     -39073.451      252.51285     -38820.938      79870.16       14.549731    
    245000   387.56801      1204.708      -39075.962      250.43539     -38825.527      79790.013      14.564346    
    246000   387.81472     -384.03718     -39071.893      250.5948      -38821.299      79835.296      14.556085    
    247000   392.48602     -364.25684     -39072.06       253.61327     -38818.446      79847.583      14.553845    
    248000   393.96796     -3213.736      -39067.89       254.57086     -38813.32       79937.211      14.537527    
    249000   392.66791      391.16763     -39073.537      253.7308      -38819.806      79829.763      14.557094    
    250000   401.76938     -287.46687     -39072.566      259.61191     -38812.954      79846.895      14.553971    
    251000   403.83862      126.94771     -39070.536      260.94899     -38809.587      79831.542      14.55677     
    252000   407.33687     -3444.6929     -39063.345      263.20946     -38800.135      79957.755      14.533792    
    253000   397.94339     -162.92409     -39059.43       257.13967     -38802.29       79884.412      14.547136    
    254000   412.42246      1518.0871     -39064.02       266.49563     -38797.524      79829.763      14.557094    
    255000   415.22696      2099.6518     -39058.312      268.30781     -38790.004      79850.905      14.55324     
    256000   417.87531     -401.98591     -39061.534      270.0191      -38791.515      79888.769      14.546342    
    257000   419.04839     -1592.2368     -39064.147      270.77711     -38793.37       79922.39       14.540223    
    258000   416.7129       78.657924     -39054.818      269.26799     -38785.55       79914.798      14.541604    
    259000   416.20107      218.34375     -39055.91       268.93725     -38786.973      79899.713      14.54435     
    260000   414.59186     -832.12335     -39053.693      267.89743     -38785.796      79925.151      14.539721    
    261000   420.76369      242.92666     -39049.119      271.88549     -38777.234      79934.959      14.537937    
    262000   427.33262      1367.7433     -39045.906      276.13015     -38769.776      79901.512      14.544022    
    263000   425.43126      3302.5008     -39052.857      274.90154     -38777.956      79831.053      14.556859    
    264000   427.30534      1295.7817     -39043.214      276.11252     -38767.101      79932.093      14.538458    
    265000   429.14165     -1184.3246     -39048.267      277.29909     -38770.968      79959.254      14.533519    
    266000   431.85752      1383.3841     -39046.882      279.054       -38767.828      79908.696      14.542715    
    267000   442.1475      -1327.0791     -39047.677      285.70309     -38761.974      79978.179      14.53008     
    268000   431.20673     -239.32935     -39044.61       278.63349     -38765.977      79966.244      14.532249    
    269000   434.60026      636.33557     -39041.566      280.82628     -38760.74       79943.299      14.53642     
    270000   438.46285     -1520.9559     -39049.414      283.32218     -38766.092      79968.136      14.531905    
    271000   444.69372     -567.72712     -39041.675      287.34839     -38754.326      79968.021      14.531926    
    272000   434.86225      1899.0747     -39038.748      280.99558     -38757.753      79922.253      14.540248    
    273000   451.61013     -800.47797     -39042.201      291.81758     -38750.383      79971.129      14.531361    
    274000   449.79106      597.54981     -39043.948      290.64215     -38753.305      79943.157      14.536446    
    275000   461.13708      446.08186     -39039.164      297.97362     -38741.19       79958.631      14.533633    
    276000   456.69434     -1350.9432     -39030.161      295.10285     -38735.058      80047.791      14.517445    
    277000   455.74186     -2008.9912     -39034.648      294.48738     -38740.16       80036.788      14.51944     
    278000   461.74405     -709.95538     -39030.15       298.36583     -38731.784      80022.81       14.521977    
    279000   458.51551     -784.14354     -39034.175      296.27964     -38737.895      80031.977      14.520313    
    280000   461.50293     -2009.9945     -39027.477      298.21002     -38729.267      80067.745      14.513827    
    281000   462.429        1192.6627     -39027.815      298.80842     -38729.006      79988.154      14.528268    
    282000   461.38256      1537.662      -39033.842      298.13224     -38735.709      79955.028      14.534288    
    283000   466.02279      989.42588     -39024.727      301.13063     -38723.596      80000.809      14.52597     
    284000   466.60204      553.07649     -39024.464      301.50492     -38722.959      80025.594      14.521471    
    285000   470.04425     -471.39404     -39020.523      303.72918     -38716.793      80051.461      14.516779    
    286000   474.6966      -97.631025     -39016.665      306.73539     -38709.93       80068.959      14.513607    
    287000   465.94291      1805.5449     -39019.314      301.07902     -38718.235      79998.819      14.526332    
    288000   481.15511     -189.13224     -39016.09       310.9087      -38705.181      80077.692      14.512024    
    289000   473.79134     -405.73831     -39021.179      306.15044     -38715.028      80055.788      14.515994    
    290000   481.95159      373.85705     -39013.388      311.42337     -38701.965      80068.377      14.513712    
    291000   488.77369     -1266.2635     -39010.645      315.83161     -38694.813      80128.162      14.502883    
    292000   482.77198      2748.5184     -39015.928      311.95348     -38703.975      79987.03       14.528473    
    293000   492.02827     -498.70462     -39008.648      317.93462     -38690.713      80116.664      14.504965    
    294000   492.35665      1971.3004     -39012.767      318.14682     -38694.62       80041.643      14.51856     
    295000   485.10567      2852.0979     -39007.691      313.46144     -38694.23       80032.732      14.520176    
    296000   489.9957      -3084.9187     -39008.58       316.62124     -38691.959      80175.352      14.494347    
    297000   491.52957      787.58655     -39005.451      317.61238     -38687.839      80093.074      14.509237    
    298000   494.30319      620.69969     -39014.066      319.40462     -38694.661      80063.71       14.514558    
    299000   503.97818     -675.47764     -39006.413      325.65632     -38680.757      80132.169      14.502158    
    300000   492.68292     -1541.8619     -39005.446      318.35765     -38687.088      80159.443      14.497224    
    301000   510.09706     -1101.1611     -39001.176      329.61016     -38671.566      80171.891      14.494973    
    302000   489.96784      1985.0302     -38998.744      316.60323     -38682.14       80074.738      14.512559    
    303000   513.72415     -1825.7813     -38999.647      331.95389     -38667.693      80191.041      14.491511    
    304000   505.70808     -387.23786     -38998.183      326.77413     -38671.408      80153.255      14.498343    
    305000   505.03029      1350.228      -39000.028      326.33616     -38673.692      80086.869      14.510361    
    306000   520.0862       938.12917     -38994.749      336.06486     -38658.684      80119.917      14.504376    
    307000   507.43979      269.39669     -38995.468      327.89311     -38667.575      80147.596      14.499367    
    308000   519.00926      766.57206     -38995.974      335.36897     -38660.606      80120.659      14.504241    
    309000   511.69852      1719.1158     -38990.758      330.64498     -38660.113      80128.161      14.502883    
    310000   516.29776      653.96603     -38997.628      333.61688     -38664.012      80113.931      14.505459    
    311000   529.24487      2484.1774     -38991.274      341.98293     -38649.291      80114.582      14.505341    
    312000   510.76665     -344.28553     -38989.741      330.04283     -38659.699      80175.354      14.494347    
    313000   518.72772      236.57996     -38988.838      335.18705     -38653.651      80176.765      14.494092    
    314000   534.56961     -2501.3758     -38982.444      345.42363     -38637.021      80288.173      14.47398     
    315000   541.21484      138.55543     -38985.684      349.71758     -38635.966      80194.005      14.490976    
    316000   521.14787     -1745.9956     -38986.881      336.75089     -38650.13       80220.622      14.486168    
    317000   535.91221     -30.881809     -38980.053      346.29118     -38633.762      80235.806      14.483426    
    318000   521.66707      1252.5635     -38983.709      337.08638     -38646.623      80167.769      14.495718    
    319000   540.12165     -1422.9527     -38979.727      349.0112      -38630.716      80256.343      14.47972     
    320000   546.48538      890.5266      -38979.083      353.12326     -38625.96       80195.351      14.490732    
    321000   534.2807      -1267.2474     -38980.362      345.23694     -38635.125      80234.646      14.483636    
    322000   545.3084      -677.49957     -38977.331      352.36273     -38624.969      80254.241      14.480099    
    323000   538.52232      1048.9315     -38971.061      347.97776     -38623.083      80216.484      14.486915    
    324000   533.3289       402.42105     -38971.833      344.62192     -38627.211      80233.08       14.483918    
    325000   556.63405     -59.385404     -38973.63       359.68104     -38613.949      80262.259      14.478653    
    326000   543.7514      -870.03312     -38975.594      351.35664     -38624.237      80243.734      14.481995    
    327000   553.74418     -2223.9241     -38968.771      357.81369     -38610.958      80321.559      14.467963    
    328000   552.79694      127.1309      -38974.73       357.20161     -38617.528      80227.109      14.484996    
    329000   557.30744     -1700.1228     -38964.023      360.11616     -38603.907      80320.533      14.468148    
    330000   566.6892      -3781.9065     -38959.294      366.17839     -38593.116      80400.239      14.453805    
    331000   564.53797     -443.81539     -38965.956      364.78833     -38601.168      80293.62       14.472998    
    332000   563.13956     -1014.9036     -38964.69       363.88471     -38600.806      80306.892      14.470606    
    333000   552.96484     -1476.2687     -38953.153      357.3101      -38595.843      80348.201      14.463166    
    334000   570.37729      2160.9706     -38954.036      368.56153     -38585.474      80263.957      14.478346    
    335000   560.50095     -2973.5257     -38956.84       362.17972     -38594.66       80361.479      14.460776    
    336000   581.03971      1171.7556     -38956.217      375.45128     -38580.766      80292.72       14.47316     
    337000   581.35959      291.16035     -38955.195      375.65798     -38579.537      80301.868      14.471511    
    338000   569.6269       1846.357      -38953.284      368.07665     -38585.207      80275.816      14.476207    
    339000   575.16134     -452.31329     -38961.012      371.65285     -38589.36       80299.601      14.47192     
    340000   581.5381       2181.2317     -38950.215      375.77333     -38574.441      80284.938      14.474563    
    341000   570.06327      443.93835     -38952.307      368.35862     -38583.949      80307.47       14.470502    
    342000   579.55845      258.81523     -38949.169      374.49413     -38574.675      80319.12       14.468403    
    343000   590.72122      559.60046     -38944.741      381.7072      -38563.034      80338.068      14.46499     
    344000   583.10462      505.80787     -38937.43       376.78557     -38560.644      80354.236      14.46208     
    345000   582.91407      705.36698     -38938.587      376.66244     -38561.924      80365.876      14.459985    
    346000   599.75792     -1457.5205     -38944.85       387.54646     -38557.304      80394.975      14.454751    
    347000   582.82383      4121.7407     -38940.287      376.60413     -38563.683      80247.789      14.481263    
    348000   587.44068     -3270.1743     -38940.49       379.5874      -38560.903      80454.032      14.444141    
    349000   601.03628     -164.40698     -38931.305      388.37249     -38542.932      80400.084      14.453833    
    350000   585.18391      1122.8772     -38935.486      378.12914     -38557.357      80366.593      14.459856    
    351000   612.82431     -938.32491     -38943.105      395.98958     -38547.116      80398.86       14.454053    
    352000   612.28208     -1235.9396     -38940.673      395.63921     -38545.034      80401.274      14.453619    
    353000   596.64453     -2097.3388     -38938.127      385.53467     -38552.593      80426.971      14.449001    
    354000   606.98616     -1796.0982     -38930.615      392.21714     -38538.398      80435.269      14.44751     
    355000   607.28794     -1947.4189     -38933.247      392.41214     -38540.835      80452.519      14.444413    
    356000   619.20342      1954.4597     -38932.881      400.11158     -38532.77       80336.675      14.465241    
    357000   610.49157     -406.45452     -38938.03       394.48223     -38543.548      80400.732      14.453716    
    358000   610.92972      125.79928     -38928.328      394.76535     -38533.563      80389.688      14.455702    
    359000   616.03368     -880.87587     -38922.807      398.06339     -38524.743      80454.592      14.44404     
    360000   620.50587     -536.06006     -38931.896      400.95319     -38530.943      80414.14       14.451306    
    361000   617.25576     -1011.7914     -38921.489      398.85306     -38522.636      80474.544      14.440459    
    362000   626.85195     -2767.4778     -38931.44       405.05384     -38526.386      80481.263      14.439254    
    363000   619.40432      195.16147     -38917.626      400.2414      -38517.384      80440.576      14.446557    
    364000   626.26412      3206.1707     -38921.967      404.67401     -38517.293      80343.875      14.463945    
    365000   639.80786     -1665.085      -38919.145      413.42558     -38505.719      80511.635      14.433807    
    366000   617.71658      1872.6378     -38911.339      399.15083     -38512.188      80434.123      14.447716    
    367000   636.94339      945.83683     -38914.923      411.57465     -38503.349      80428.995      14.448637    
    368000   624.94218     -56.398973     -38919.258      403.8198      -38515.438      80447.8        14.44526     
    369000   637.50349      667.78443     -38913.216      411.93657     -38501.28       80457.961      14.443435    
    370000   639.68089     -3291.2662     -38915.496      413.34354     -38502.153      80541.561      14.428444    
    371000   649.12754      1013.8435     -38909.528      419.44769     -38490.08       80456.197      14.443752    
    372000   656.11077      2727.4721     -38903.837      423.96006     -38479.877      80424.974      14.44936     
    373000   655.34333      242.80214     -38916.354      423.46416     -38492.89       80467.489      14.441725    
    374000   644.15692     -778.12003     -38909.747      416.23582     -38493.511      80522.354      14.431885    
    375000   658.42795     -695.83815     -38908.861      425.45735     -38483.404      80522.912      14.431785    
    376000   648.53268     -340.31782     -38908.391      419.06331     -38489.328      80503.456      14.435273    
    377000   660.98348     -1730.8106     -38895.16       427.10866     -38468.052      80578.323      14.421861    
    378000   650.70337      2577.4411     -38899.202      420.46595     -38478.736      80437.934      14.447032    
    379000   660.27672      515.39316     -38900.415      426.65197     -38473.763      80500.86       14.435739    
    380000   654.09517      436.89096     -38903.741      422.65764     -38481.083      80509.89       14.434119    
    381000   655.31625      3311.5088     -38888.508      423.44666     -38465.061      80470.982      14.441098    
    382000   677.26738      1418.485      -38894.028      437.63085     -38456.397      80506.732      14.434686    
    383000   680.85989      283.88868     -38897.818      439.95223     -38457.866      80538.08       14.429067    
    384000   658.09766      3882.2923     -38899.295      425.24393     -38474.051      80417.972      14.450618    
    385000   667.58658     -2033.013      -38888.843      431.3754      -38457.468      80626.325      14.413275    
    386000   662.33014     -2308.3315     -38891.865      427.97883     -38463.886      80591.447      14.419513    
    387000   675.00523      3105.2221     -38888.463      436.16912     -38452.294      80468.809      14.441488    
    388000   669.44674     -438.52319     -38893.976      432.57738     -38461.399      80566.322      14.424009    
    389000   684.98345     -1146.1585     -38887.859      442.61676     -38445.242      80593.122      14.419213    
    390000   677.68533     -369.64317     -38891.279      437.90092     -38453.379      80572.343      14.422931    
    391000   696.45602      1441.9565     -38886.592      450.03001     -38436.562      80546.577      14.427545    
    392000   668.96821     -242.15335     -38881.168      432.26817     -38448.9        80588.081      14.420115    
    393000   687.06834      389.92502     -38880.576      443.96396     -38436.612      80582.573      14.4211      
    394000   678.67805     -3033.5015     -38890.314      438.54239     -38451.771      80640.833      14.410682    
    395000   679.86155     -2281.1026     -38873.1        439.30714     -38433.793      80680.099      14.403668    
    396000   694.07492     -150.06841     -38880.389      448.49141     -38431.898      80593.814      14.419089    
    397000   692.01502     -1863.8925     -38878.436      447.16036     -38431.275      80661.696      14.406954    
    398000   704.17623      3688.5911     -38878.22       455.01859     -38423.201      80511.477      14.433835    
    399000   704.51927      1847.9924     -38872.952      455.24025     -38417.711      80578.399      14.421847    
    400000   699.82838      803.77199     -38878.149      452.20913     -38425.94       80587.065      14.420297    
    401000   703.82296      87.398368     -38868.398      454.79031     -38413.608      80629.063      14.412785    
    402000   701.86708     -3200.8267     -38875.767      453.52648     -38422.241      80695.046      14.401       
    403000   701.31532     -936.60961     -38863.048      453.16995     -38409.878      80680.904      14.403525    
    404000   709.34237     -1623.6825     -38872.989      458.3568      -38414.632      80672.02       14.405111    
    405000   693.94753     -51.858774     -38859.708      448.40909     -38411.299      80663.884      14.406564    
    406000   706.59798     -2742.4064     -38861.276      456.58345     -38404.693      80735.875      14.393717    
    407000   711.66971     -2603.5295     -38862.324      459.86066     -38402.463      80734.033      14.394046    
    408000   712.71395     -351.97383     -38871.608      460.53542     -38411.072      80644.461      14.410033    
    409000   719.88808     -4292.7917     -38864.658      465.17113     -38399.487      80785.465      14.384882    
    410000   723.7642      -1598.309      -38864.684      467.67577     -38397.009      80692.004      14.401543    
    411000   725.25969     -2588.2356     -38864.805      468.64212     -38396.163      80723.255      14.395968    
    412000   730.80928      351.21193     -38858.63       472.2281      -38386.401      80678.352      14.40398     
    413000   709.80988      2092.4228     -38858.117      458.65889     -38399.458      80610.004      14.416193    
    414000   727.16332     -939.58266     -38851.229      469.87219     -38381.357      80708.955      14.398518    
    415000   745.54819      3589.9139     -38848.645      481.75197     -38366.893      80611.31       14.415959    
    416000   739.97435      3319.4565     -38859.236      478.15031     -38381.086      80578.159      14.42189     
    417000   744.27636      5322.0833     -38839.992      480.93015     -38359.062      80613.067      14.415645    
    418000   743.99796      266.78454     -38855.934      480.75025     -38375.184      80678.96       14.403871    
    419000   723.05437      290.85316     -38855.411      467.2171      -38388.194      80694.839      14.401037    
    420000   742.38307     -236.67965     -38842.895      479.70676     -38363.188      80753.385      14.390596    
    421000   726.99628     -1197.6349     -38845.819      469.76425     -38376.055      80754.535      14.390391    
    422000   741.23129     -1038.2248     -38840.603      478.96251     -38361.64       80773.596      14.386996    
    423000   734.29691     -2105.2967     -38847.103      474.48171     -38372.621      80758.841      14.389624    
    424000   755.61779      291.3347      -38839.839      488.25865     -38351.581      80730.689      14.394642    
    425000   735.39045      682.42611     -38838.019      475.18833     -38362.831      80722.706      14.396066    
    426000   763.86184     -3006.5331     -38839.555      493.58572     -38345.969      80810.973      14.380341    
    427000   746.70484      2090.6592     -38842.85       482.49936     -38360.351      80667.509      14.405916    
    428000   750.60524      411.62686     -38833.139      485.01969     -38348.119      80759.543      14.389499    
    429000   751.32431      760.29056     -38831.167      485.48433     -38345.683      80750.043      14.391192    
    430000   761.14802      1285.9658     -38827.726      491.83213     -38335.894      80741.992      14.392627    
    431000   756.96784      36.155301     -38843.019      489.13102     -38353.888      80715.502      14.397351    
    432000   757.24715     -2702.5573     -38821.994      489.3115      -38332.683      80879.844      14.368096    
    433000   773.21052      403.74145     -38838.522      499.62657     -38338.896      80732.79       14.394267    
    434000   769.32289      661.8779      -38832.136      497.1145      -38335.022      80744.534      14.392174    
    435000   775.19423      1822.3672     -38830.913      500.90839     -38330.005      80728.904      14.39496     
    436000   778.50097      162.88111     -38818.369      503.04511     -38315.324      80812.453      14.380078    
    437000   773.05642     -1865.6345     -38822.584      499.527       -38323.057      80835.899      14.375907    
    438000   762.26808     -5418.5061     -38820.196      492.55588     -38327.64       80956.236      14.354538    
    439000   778.42483      420.09249     -38821.008      502.99591     -38318.012      80775.836      14.386597    
    440000   783.23151      2831.867      -38817.649      506.10185     -38311.547      80738.088      14.393323    
    441000   780.02997     -442.88873     -38821.445      504.03311     -38317.412      80805.497      14.381316    
    442000   795.73282     -1770.9055     -38808.948      514.17984     -38294.768      80876.985      14.368604    
    443000   772.9622       2267.4994     -38816.95       499.46612     -38317.484      80740.393      14.392912    
    444000   786.84006     -1122.6607     -38807.058      508.4336      -38298.625      80904.936      14.36364     
    445000   797.79501     -924.1103      -38819.173      515.51237     -38303.66       80836.388      14.37582     
    446000   778.63609      1995.9386     -38803.839      503.13242     -38300.707      80811.751      14.380203    
    447000   797.20267      1957.7025     -38826.947      515.12962     -38311.818      80737.021      14.393513    
    448000   785.32006     -145.64081     -38815.303      507.45141     -38307.851      80820.835      14.378586    
    449000   792.15418     -1747.6055     -38801.54       511.86742     -38289.673      80915.558      14.361754    
    450000   801.0373      -1232.7653     -38811.57       517.60745     -38293.963      80857.872      14.372001    
    451000   779.74406     -4506.247      -38799.932      503.84836     -38296.084      80996.149      14.347464    
    452000   803.18519     -1458.1741     -38806.37       518.99535     -38287.375      80894.511      14.365491    
    453000   802.0423      -6.8337579     -38799.202      518.25685     -38280.945      80855.613      14.372402    
    454000   804.41619     -981.25962     -38814.168      519.79079     -38294.377      80846.903      14.37395     
    455000   799.80809     -1828.203      -38800.709      516.81317     -38283.896      80925.642      14.359965    
    456000   812.35272     -790.52894     -38803.168      524.91915     -38278.249      80908.987      14.362921    
    457000   826.26478      334.58398     -38792.66       533.90872     -38258.751      80893.272      14.365711    
    458000   811.41334      2524.1027     -38791.281      524.31214     -38266.969      80834.012      14.376243    
    459000   820.2032       2186.7642     -38796.234      529.99191     -38266.242      80841.341      14.374939    
    460000   809.92907     -4858.0376     -38796.445      523.35305     -38273.092      81019.908      14.343257    
    461000   830.27051      2608.9355     -38795.633      536.49711     -38259.136      80838.286      14.375483    
    462000   831.90746      991.74901     -38800.339      537.55486     -38262.784      80857.882      14.371999    
    463000   828.54575      1893.4457     -38780.555      535.38262     -38245.172      80892.01       14.365935    
    464000   812.16557      663.99209     -38787.722      524.79822     -38262.923      80876.581      14.368676    
    465000   843.88184      2397.8296     -38796.379      545.29236     -38251.086      80826.05       14.377659    
    466000   844.62727     -3468.4749     -38785.654      545.77404     -38239.88       81023.611      14.342602    
    467000   845.71275      926.44717     -38787.491      546.47544     -38241.016      80908.985      14.362921    
    468000   840.22467      5545.3768     -38778.088      542.9292      -38235.159      80794.123      14.38334     
    469000   821.94268     -52.811101     -38784.888      531.1159      -38253.772      80929.467      14.359286    
    470000   834.66129     -3574.519      -38777.552      539.33431     -38238.218      81057.527      14.3366      
    471000   832.23458      289.93351     -38778.697      537.76624     -38240.93       80952.441      14.355211    
    472000   858.28989      2209.949      -38775.406      554.60244     -38220.803      80918.268      14.361273    
    473000   842.23791      2025.0991     -38782.099      544.2301      -38237.868      80877.016      14.368599    
    474000   846.55665      274.74348     -38767.839      547.02075     -38220.819      80963.117      14.353318    
    475000   848.74325      849.11823     -38773.588      548.43367     -38225.154      80936.89       14.357969    
    476000   852.89229      4474.5583     -38779.206      551.11466     -38228.092      80813.603      14.379873    
    477000   858.98569     -248.44415     -38765.504      555.05204     -38210.452      81001.734      14.346475    
    478000   851.55319      175.1708      -38766.564      550.24937     -38216.315      80976.973      14.350862    
    479000   866.60988     -3858.4384     -38759.962      559.97858     -38199.983      81121.412      14.32531     
    480000   858.79805      1121.3562     -38772.583      554.93079     -38217.652      80933.379      14.358592    
    481000   859.84651      2383.4759     -38757.858      555.60828     -38202.25       80946.485      14.356267    
    482000   869.63158      564.81439     -38757.133      561.93111     -38195.202      81029.991      14.341472    
    483000   866.21484      886.39253     -38766.242      559.72331     -38206.518      80949.556      14.355723    
    484000   875.49313     -2360.6163     -38761.766      565.71868     -38196.047      81053.865      14.337248    
    485000   862.99813     -3296.6657     -38752.499      557.64476     -38194.854      81141.872      14.321698    
    486000   865.35431      1970.7241     -38755.699      559.16727     -38196.531      80962.598      14.35341     
    487000   883.92207     -458.9238      -38743.876      571.16522     -38172.711      81075.029      14.333505    
    488000   868.34649      3491.6969     -38755.902      561.10072     -38194.802      80921.355      14.360726    
    489000   886.51524     -1853.9513     -38743.659      572.84085     -38170.819      81099.627      14.329158    
    490000   880.01903      852.67605     -38751.64       568.64319     -38182.997      81024.985      14.342358    
    491000   893.398       -1391.5797     -38752.722      577.2883      -38175.434      81068.765      14.334613    
    492000   890.38019      3143.1629     -38745.144      575.33827     -38169.806      80975.137      14.351188    
    493000   890.84316     -464.16924     -38750.81       575.63743     -38175.172      81051.071      14.337742    
    494000   879.78361      1855.1458     -38741.132      568.49106     -38172.641      81035.368      14.340521    
    495000   879.9382       3072.9618     -38745.635      568.59096     -38177.044      80988.738      14.348777    
    496000   891.65888      1455.6969     -38749.923      576.16453     -38173.759      81022.888      14.34273     
    497000   899.5231      -135.64561     -38750.303      581.24616     -38169.057      81050.876      14.337777    
    498000   895.11288      285.88061     -38748.689      578.3964      -38170.293      81053.109      14.337382    
    499000   898.56285     -316.48598     -38746.106      580.62568     -38165.481      81065.067      14.335267    
    500000   903.83305      1252.3856     -38734.488      584.03113     -38150.457      81067.103      14.334907    
    501000   921.5846       1194.6156     -38749.715      595.50167     -38154.214      80994.944      14.347678    
    502000   910.14047     -1578.6429     -38730.293      588.1068      -38142.186      81144.963      14.321152    
    503000   907.4455       449.80525     -38741.925      586.36539     -38155.56       81055.415      14.336974    
    504000   903.10599      2392.3782     -38735.252      583.56132     -38151.691      81011.03       14.344829    
    505000   913.8865       30.286795     -38725.041      590.52738     -38134.514      81122.728      14.325078    
    506000   908.4211       1287.1109     -38729.165      586.9958      -38142.169      81079.979      14.33263     
    507000   912.95358     -2170.7571     -38722.169      589.92455     -38132.245      81186.084      14.313899    
    508000   902.98991      2407.1183     -38717.625      583.48631     -38134.139      81094.886      14.329996    
    509000   909.22459     -492.16015     -38727.546      587.51499     -38140.031      81130.881      14.323638    
    510000   915.38032     -249.63394     -38731.539      591.49264     -38140.046      81075.839      14.333362    
    511000   935.11477     -2111.4581     -38724.345      604.24448     -38120.101      81196.92       14.311988    
    512000   912.0826      -4938.8594     -38722.242      589.36175     -38132.88       81262.934      14.300362    
    513000   911.39244      463.91229     -38709.726      588.91579     -38120.81       81141.969      14.321681    
    514000   918.35514     -2015.3256     -38725.964      593.41489     -38132.55       81174.272      14.315981    
    515000   944.10912      5613.5041     -38720.799      610.05637     -38110.743      80984.686      14.349495    
    516000   943.93344      1175.0649     -38707.867      609.94286     -38097.924      81146.322      14.320913    
    517000   943.46606      3257.5764     -38723.546      609.64085     -38113.905      81051.346      14.337694    
    518000   967.09031      991.12198     -38713.105      624.90616     -38088.199      81134.865      14.322935    
    519000   945.85112     -553.37153     -38726.291      611.18201     -38115.109      81142.815      14.321531    
    520000   944.37681      5244.2089     -38709.945      610.22935     -38099.715      81034.064      14.340752    
    521000   941.21793      3980.0605     -38720.329      608.18817     -38112.141      81046.394      14.33857     
    522000   947.98527     -1267.1764     -38714.621      612.56103     -38102.06       81199.637      14.311509    
    523000   957.26296      2653.0142     -38702.675      618.55601     -38084.119      81116.073      14.326253    
    524000   929.57688     -2245.0915     -38715.554      600.66605     -38114.888      81214.257      14.308933    
    525000   947.42749      2044.5931     -38704.332      612.20061     -38092.131      81148.007      14.320615    
    526000   945.26366     -2473.5975     -38702.658      610.8024      -38091.856      81259.533      14.300961    
    527000   948.07864      1685.7726     -38710.901      612.62136     -38098.28       81135.296      14.322859    
    528000   951.3352      -1987.3713     -38694.373      614.72566     -38079.648      81300.482      14.293758    
    529000   956.65946     -2081.9912     -38692.222      618.16605     -38074.056      81283.417      14.296758    
    530000   974.81366     -1217.0366     -38699.465      629.89677     -38069.568      81232.588      14.305704    
    531000   941.75183     -2264.6725     -38692.852      608.53316     -38084.318      81261.406      14.300631    
    532000   966.74257     -4076.918      -38694.424      624.68146     -38069.743      81324.654      14.289509    
    533000   961.56722     -322.79278     -38709.34       621.3373      -38088.003      81167.632      14.317153    
    534000   978.16805     -2176.72       -38694.111      632.06428     -38062.047      81283.32       14.296775    
    535000   981.74893      2714.845      -38707.194      634.37814     -38072.816      81114.69       14.326497    
    536000   975.47419      131.59621     -38693.424      630.32359     -38063.1        81227.113      14.306669    
    537000   971.6592      -1332.6132     -38706.766      627.85845     -38078.908      81228.716      14.306386    
    538000   983.74681     -604.02887     -38695.509      635.66912     -38059.84       81240.729      14.304271    
    539000   989.30935      1537.2563     -38684.261      639.26347     -38044.998      81210.78       14.309546    
    540000   988.97423      794.05713     -38683.929      639.04693     -38044.882      81232.554      14.30571     
    541000   978.55534      495.18666     -38685.768      632.31454     -38053.454      81241.22       14.304184    
    542000   969.61752     -1359.8939     -38681.259      626.53917     -38054.72       81304.41       14.293067    
    543000   962.02345      225.82804     -38667.571      621.6321      -38045.939      81305.964      14.292794    
    544000   986.34442     -524.28944     -38677.504      637.34762     -38040.156      81262.566      14.300427    
    545000   990.29933     -5276.2275     -38679.441      639.90317     -38039.538      81441.573      14.268995    
    546000   1001.501      -5915.5711     -38667.718      647.14134     -38020.577      81464.719      14.264941    
    547000   1006.5587      3294.0803     -38685.968      650.40952     -38035.558      81161.797      14.318182    
    548000   1010.8734     -3717.713      -38676.163      653.19756     -38022.965      81391.891      14.277704    
    549000   993.07186      2596.192      -38679.508      641.6947      -38037.813      81193.678      14.31256     
    550000   991.27786      457.33911     -38659.779      640.53547     -38019.243      81327.172      14.289066    
    551000   989.40146     -1950.605      -38679.769      639.32299     -38040.446      81327.59       14.288993    
    552000   1002.867       1461.8524     -38661.072      648.02402     -38013.048      81278.745      14.29758     
    553000   1009.6875     -2528.5213     -38660.415      652.43126     -38007.983      81396.004      14.276983    
    554000   1024.2537      1876.4446     -38679.36       661.84352     -38017.516      81222.658      14.307453    
    555000   990.32423      946.42703     -38647.261      639.91926     -38007.342      81345.7        14.285812    
    556000   1007.1538      1656.6529     -38652.844      650.79403     -38002.05       81295.947      14.294555    
    557000   997.21611     -3536.4111     -38669.117      644.37259     -38024.744      81405.975      14.275234    
    558000   1030.8078      1486.7661     -38660.229      666.07861     -37994.15       81285.781      14.296343    
    559000   1008.8162      1467.5956     -38662.5        651.86824     -38010.632      81292.431      14.295173    
    560000   1018.0379     -194.67083     -38655.456      657.82707     -37997.629      81330.271      14.288522    
    561000   1013.2674      66.171869     -38658.846      654.74449     -38004.101      81329.697      14.288623    
    562000   1046.4642     -4302.8468     -38657.722      676.19532     -37981.526      81448.566      14.26777     
    563000   1023.1654     -1908.9215     -38649.262      661.14026     -37988.122      81417.776      14.273165    
    564000   1044.5476     -1329.0948     -38648.639      674.95684     -37973.682      81400.721      14.276156    
    565000   1031.6258     -4115.5675     -38655.942      666.60715     -37989.335      81460.059      14.265757    
    566000   1054.4129     -462.42623     -38661.922      681.33154     -37980.591      81351.649      14.284767    
    567000   1054.5975      3436.1013     -38638.249      681.45078     -37956.798      81303.111      14.293295    
    568000   1034.5097     -846.1191      -38647.52       668.47064     -37979.049      81386.143      14.278713    
    569000   1034.3449     -1329.7669     -38650.809      668.36417     -37982.445      81389.527      14.278119    
    570000   1046.3706      1860.6194     -38641.91       676.1348      -37965.775      81328.176      14.28889     
    571000   1059.8346      638.39776     -38644.489      684.8349      -37959.654      81356.334      14.283945    
    572000   1027.7107     -3207.8875     -38649.448      664.07735     -37985.371      81453.13       14.26697     
    573000   1048.7029     -4666.9709     -38635.634      677.64188     -37957.992      81509.669      14.257074    
    574000   1038.8295     -1416.7288     -38646.729      671.262       -37975.467      81424.462      14.271993    
    575000   1067.0524      2555.2004     -38650.541      689.49883     -37961.043      81272.905      14.298608    
    576000   1045.8754      4960.4992     -38647.537      675.81484     -37971.722      81215.398      14.308732    
    577000   1052.5968     -902.17348     -38631.926      680.15805     -37951.768      81446.2        14.268184    
    578000   1070.8246      3441.7705     -38630.247      691.93633     -37938.311      81340.811      14.286671    
    579000   1038.0372     -2841.0583     -38628.406      670.75        -37957.656      81511.455      14.256762    
    580000   1047.6783      2123.2779     -38623.739      676.97982     -37946.759      81345.428      14.28586     
    581000   1058.5716     -312.4567      -38629.352      684.01876     -37945.334      81448.009      14.267867    
    582000   1062.9629      2401.1654     -38639.988      686.85629     -37953.132      81345.466      14.285853    
    583000   1073.722       2549.5922     -38626.826      693.8085      -37933.017      81352.662      14.284589    
    584000   1068.6898     -1415.791      -38633.048      690.55684     -37942.491      81458.782      14.26598     
    585000   1063.7777     -150.71446     -38621.585      687.38278     -37934.202      81423.119      14.272229    
    586000   1080.1017      465.75989     -38631.353      697.93088     -37933.422      81414.889      14.273671    
    587000   1062.6389     -1185.8218     -38619.858      686.6469      -37933.211      81503.512      14.258151    
    588000   1096.5721     -1209.985      -38616.215      708.5736      -37907.642      81523.052      14.254733    
    589000   1070.0114     -38.720526     -38616.994      691.41081     -37925.583      81476.291      14.262914    
    590000   1093.379      -4394.3245     -38613.713      706.51031     -37907.202      81595.258      14.242119    
    591000   1090.4215      537.01601     -38617.603      704.59927     -37913.003      81442.974      14.268749    
    592000   1081.7168     -2545.5933     -38621.659      698.97455     -37922.685      81506.609      14.257609    
    593000   1103.301       3464.8107     -38598.807      712.92163     -37885.885      81421.162      14.272572    
    594000   1080.6263      469.95643     -38613.449      698.26988     -37915.179      81471.87       14.263689    
    595000   1106.5332     -2150.2642     -38598.239      715.01017     -37883.229      81549.198      14.250163    
    596000   1089.9936     -2128.2984     -38613.234      704.32273     -37908.911      81550.53       14.24993     
    597000   1091.4372     -3841.9305     -38589.712      705.25557     -37884.457      81614.48       14.238765    
    598000   1098.8219     -247.16978     -38615.66       710.02737     -37905.632      81472.518      14.263575    
    599000   1108.8847     -2961.3243     -38608.227      716.52967     -37891.697      81579.013      14.244955    
    600000   1117.7146     -3084.8028     -38602.194      722.23529     -37879.959      81604.515      14.240503    
    601000   1103.7737      2231.1302     -38590.884      713.22705     -37877.657      81466.672      14.264599    
    602000   1095.7725     -205.90506     -38596.4        708.0569      -37888.343      81544.41       14.251       
    603000   1113.5102     -2358.8813     -38595.608      719.51853     -37876.09       81593.618      14.242405    
    604000   1104.6164     -5779.46       -38615.484      713.77158     -37901.712      81657.4        14.231281    
    605000   1102.4123     -2838.1443     -38603.122      712.3474      -37890.775      81585.883      14.243756    
    606000   1102.8463      467.9648      -38581.548      712.62778     -37868.921      81529.688      14.253573    
    607000   1125.6581      1263.6839     -38606.64       727.36811     -37879.272      81465.422      14.264818    
    608000   1094.5934      1721.3443     -38575.251      707.29505     -37867.956      81528.85       14.25372     
    609000   1112.9358     -987.49012     -38594.91       719.14738     -37875.763      81556.134      14.248951    
    610000   1127.3593     -2229.9235     -38580.316      728.4674      -37851.848      81652.516      14.232132    
    611000   1107.265       4273.1436     -38587.37       715.48308     -37871.887      81432.39       14.270604    
    612000   1143.9286     -691.04561     -38591.071      739.17401     -37851.897      81586.228      14.243695    
    613000   1113.6952     -354.51687     -38588.152      719.63806     -37868.514      81527.501      14.253955    
    614000   1138.0538      400.64581     -38587.845      735.3779      -37852.467      81500.969      14.258596    
    615000   1144.849       180.63864     -38585.68       739.76876     -37845.911      81578.137      14.245108    
    616000   1111.0894      596.35867     -38574.23       717.95424     -37856.276      81577.734      14.245178    
    617000   1158.8217     -305.94179     -38577.826      748.79749     -37829.029      81579.068      14.244945    
    618000   1122.587      -991.23015     -38576.966      725.38368     -37851.583      81612.812      14.239056    
    619000   1119.3164     -858.3656      -38576.925      723.27032     -37853.654      81605.805      14.240278    
    620000   1145.4701      1027.5535     -38560.919      740.17007     -37820.749      81615.705      14.238551    
    621000   1132.773      -777.54093     -38568.548      731.96559     -37836.582      81621.481      14.237543    
    622000   1153.9051      2925.122      -38560.257      745.62058     -37814.636      81533.314      14.252939    
    623000   1145.3276     -567.20125     -38578.057      740.07804     -37837.979      81589.327      14.243154    
    624000   1161.7957     -1757.0114     -38567.525      750.71925     -37816.806      81671.882      14.228757    
    625000   1123.329      -1813.4666     -38580.466      725.86315     -37854.603      81650.307      14.232517    
    626000   1159.3577     -232.328       -38553.648      749.14385     -37804.504      81686.245      14.226255    
    627000   1158.682      -3162.4121     -38567.634      748.70725     -37818.927      81687.915      14.225964    
    628000   1151.0618     -1455.2723     -38569.354      743.78332     -37825.57       81639.303      14.234435    
    629000   1167.9808     -2179.8742     -38543.034      754.71589     -37788.318      81725.716      14.219384    
    630000   1174.1427     -39.936533     -38563.715      758.69751     -37805.018      81620.06       14.237791    
    631000   1153.6996      3744.1331     -38574.887      745.48779     -37829.4        81492.842      14.260018    
    632000   1168.2741     -4368.7805     -38557.826      754.90537     -37802.921      81766.45       14.212301    
    633000   1177.8342     -1694.9117     -38557.532      761.08283     -37796.449      81676.781      14.227904    
    634000   1150.1492     -3133.9756     -38545.585      743.19359     -37802.392      81752.589      14.21471     
    635000   1179.5925     -445.69088     -38546.864      762.21898     -37784.645      81646.392      14.233199    
    636000   1162.9035     -4596.0289     -38552.128      751.43509     -37800.693      81776.328      14.210584    
    637000   1177.7465     -3352.8462     -38548.101      761.02616     -37787.075      81755.144      14.214266    
    638000   1181.0664     -849.09891     -38555.968      763.17141     -37792.797      81685.676      14.226354    
    639000   1196.2275      442.59139     -38550.457      772.96809     -37777.489      81663.232      14.230264    
    640000   1195.3343     -2759.3169     -38549.784      772.39091     -37777.393      81752.06       14.214802    
    641000   1188.8334      583.53514     -38539.306      768.19023     -37771.116      81709.694      14.222173    
    642000   1178.656       400.28626     -38558.523      761.61387     -37796.909      81639.684      14.234369    
    643000   1170.4601      2075.5808     -38525.881      756.31794     -37769.563      81679.606      14.227412    
    644000   1188.0466      3429.3524     -38550.25       767.68178     -37782.568      81571.832      14.246209    
[...]
   7041000   301.48646     -130.11163     -39132.631      194.81195     -38937.819      79563.15       14.605874    
   7042000   298.456       -1551.7197     -39137.579      192.85375     -38944.725      79568.468      14.604898    
   7043000   305.39255      1452.8556     -39133.219      197.33595     -38935.883      79508.981      14.615825    
   7044000   297.39263     -485.07147     -39132.179      192.16663     -38940.013      79564.957      14.605543    
   7045000   304.39028      102.35727     -39134.528      196.68831     -38937.84       79556.511      14.607093    
   7046000   296.51877     -166.30419     -39133.158      191.60197     -38941.556      79553.811      14.607589    
   7047000   301.78453     -1078.7438     -39128.785      195.00455     -38933.781      79610.331      14.597218    
   7048000   303.28893     -2669.8142     -39137.201      195.97665     -38941.225      79619.915      14.595461    
   7049000   301.02645     -553.54263     -39132.901      194.5147      -38938.386      79561.507      14.606176    
   7050000   295.57187     -1474.8966     -39132.568      190.99011     -38941.578      79596.539      14.599748    
   7051000   296.15999     -460.25254     -39130.009      191.37014     -38938.639      79590.222      14.600906    
   7052000   305.68572      2499.5244     -39131.975      197.52539     -38934.45       79491.402      14.619057    
   7053000   301.68094      476.44187     -39133.455      194.93762     -38938.517      79559.292      14.606583    
   7054000   294.37619      398.5229      -39129.328      190.2175      -38939.11       79568.789      14.604839    
   7055000   301.39477      1417.2352     -39133.691      194.7527      -38938.938      79505.491      14.616467    
   7056000   298.78497      933.17363     -39128.25       193.06632     -38935.184      79535.89       14.61088     
   7057000   299.20893     -455.47863     -39135.18       193.34027     -38941.839      79562.412      14.60601     
   7058000   299.36913      316.36961     -39130.437      193.44379     -38936.993      79573.703      14.603937    
   7059000   298.11828      666.76478     -39131.847      192.63553     -38939.212      79547.816      14.60869     
   7060000   309.32631     -183.81295     -39131.212      199.87783     -38931.334      79574.088      14.603867    
   7061000   301.57566      2021.0711     -39133.438      194.86958     -38938.568      79496.712      14.618081    
   7062000   306.33804     -302.39066     -39133.026      197.9469      -38935.079      79566.681      14.605226    
   7063000   298.12696      1042.4931     -39133.012      192.64114     -38940.37       79537.842      14.610522    
   7064000   300.21515     -4.2703079     -39129.825      193.99046     -38935.835      79581.648      14.602479    
   7065000   298.33931     -2123.4715     -39135.704      192.77835     -38942.925      79608.919      14.597477    
   7066000   297.95063      68.865889     -39129.313      192.5272      -38936.786      79573.095      14.604049    
   7067000   297.83933      462.93371     -39133.562      192.45527     -38941.107      79547.162      14.60881     
   7068000   308.22674     -486.2184      -39134.604      199.16732     -38935.437      79572.362      14.604183    
   7069000   297.97947      239.38958     -39138.205      192.54583     -38945.659      79527.698      14.612385    
   7070000   304.28382     -1698.1685     -39132.375      196.61952     -38935.756      79600.925      14.598943    
   7071000   296.48032     -983.26439     -39132.973      191.57712     -38941.396      79581.004      14.602598    
   7072000   299.38641     -154.20292     -39127.886      193.45496     -38934.431      79583.765      14.602091    
   7073000   300.13473     -275.24011     -39135.042      193.9385      -38941.104      79553.186      14.607704    
   7074000   304.18762      2781.1094     -39131.384      196.55736     -38934.827      79488.373      14.619615    
   7075000   300.87839     -1126.5761     -39131.958      194.41903     -38937.539      79595.473      14.599943    
   7076000   305.44815     -11.98698      -39132.559      197.37188     -38935.187      79552.521      14.607826    
   7077000   298.81404      1391.4385     -39128.809      193.08511     -38935.724      79539.598      14.610199    
   7078000   302.70891      726.71486     -39135.06       195.60186     -38939.458      79532.013      14.611593    
   7079000   305.83955      1588.1467     -39134.235      197.62479     -38936.61       79520.353      14.613735    
   7080000   295.33646      845.05715     -39130.33       190.83799     -38939.492      79549.204      14.608435    
   7081000   301.97595      2852.5365     -39131.372      195.12824     -38936.243      79487.257      14.61982     
   7082000   296.76921      2065.9228     -39133.656      191.7638      -38941.893      79493.455      14.61868     
   7083000   304.57472      1323.7476     -39133.405      196.80749     -38936.598      79524.597      14.612955    
   7084000   300.09512      471.41172     -39138.125      193.91291     -38944.212      79524.058      14.613054    
   7085000   302.04069      995.2128      -39133.746      195.17008     -38938.576      79528.967      14.612152    
   7086000   298.05004      2573.8115     -39133.767      192.59143     -38941.175      79485.881      14.620073    
   7087000   299.71906      583.76813     -39133.953      193.6699      -38940.283      79549.873      14.608312    
   7088000   298.39326      224.63814     -39133.496      192.81321     -38940.683      79555.016      14.607368    
   7089000   296.24607      100.92496     -39132.821      191.42576     -38941.395      79557.692      14.606876    
   7090000   300.58857      1388.1796     -39134.072      194.23176     -38939.84       79516.775      14.614393    
   7091000   300.187       -1332.8332     -39131.147      193.97228     -38937.174      79609.01       14.59746     
   7092000   298.10669      630.66356     -39134.623      192.62804     -38941.995      79526.452      14.612614    
   7093000   307.27928      1064.7297     -39129.645      198.5551      -38931.09       79560.587      14.606345    
   7094000   297.6524      -768.01735     -39132.778      192.33449     -38940.443      79582.42       14.602338    
   7095000   299.28153     -2561.8599     -39135.346      193.38719     -38941.959      79624.74       14.594577    
   7096000   303.82212      1072.9275     -39133.614      196.32119     -38937.293      79524.127      14.613042    
   7097000   301.96357     -1633.3559     -39134.553      195.12024     -38939.433      79584.008      14.602046    
   7098000   306.91285      1513.7737     -39130.552      198.31832     -38932.233      79534.345      14.611164    
   7099000   301.0124       513.55547     -39135.396      194.50562     -38940.89       79548.181      14.608623    
   7100000   295.83618      279.35614     -39134.755      191.1609      -38943.594      79546.901      14.608858    
   7101000   302.6337      -129.19091     -39133.522      195.55326     -38937.969      79563.634      14.605786    
   7102000   300.94111      748.0588      -39135.378      194.45956     -38940.918      79535.166      14.611013    
   7103000   298.71425     -874.61197     -39129.975      193.02062     -38936.954      79596.684      14.599721    
   7104000   301.57514     -213.23361     -39135.504      194.86925     -38940.634      79546.693      14.608896    
   7105000   301.57781     -1344.8261     -39132.071      194.87098     -38937.2        79605.174      14.598164    
   7106000   298.21632     -1364.6141     -39131.89       192.69888     -38939.191      79605.188      14.598161    
   7107000   306.3673      -1147.8522     -39133.016      197.96581     -38935.05       79590.934      14.600776    
   7108000   306.81436      1125.3839     -39135.707      198.25468     -38937.452      79521.259      14.613569    
   7109000   293.17613      235.59423     -39133.127      189.44205     -38943.685      79555.006      14.60737     
   7110000   300.40061      872.93757     -39130.127      194.1103      -38936.017      79544.771      14.609249    
   7111000   296.89775     -926.8998      -39134.877      191.84686     -38943.03       79572.274      14.6042      
   7112000   302.75978     -1632.7943     -39134.195      195.63473     -38938.561      79599.499      14.599205    
   7113000   302.08949     -1310.4245     -39132.201      195.20161     -38937          79600.545      14.599013    
   7114000   306.44901      490.81264     -39136.841      198.01861     -38938.822      79528.827      14.612178    
   7115000   302.36949      196.62819     -39126.757      195.38254     -38931.374      79579.778      14.602822    
   7116000   298.00671      2149.0517     -39134.689      192.56343     -38942.125      79496.524      14.618116    
   7117000   299.07682     -1095.7111     -39129.025      193.25491     -38935.77       79611.056      14.597085    
   7118000   299.20931     -1211.2513     -39132.499      193.34052     -38939.159      79596.602      14.599736    
   7119000   298.43465     -835.53746     -39131.214      192.83995     -38938.374      79594.991      14.600031    
   7120000   299.4915      -55.497559     -39132.93       193.52286     -38939.407      79568.352      14.60492     
   7121000   293.26631      362.10317     -39132.061      189.50032     -38942.56       79548.558      14.608554    
   7122000   304.21785     -482.08342     -39131.927      196.5769      -38935.35       79582.895      14.602251    
   7123000   296.92191     -842.00723     -39132.71       191.86247     -38940.848      79584.449      14.601965    
   7124000   299.96677      2181.8122     -39130.523      193.82997     -38936.693      79506.517      14.616278    
   7125000   301.47348      2507.147      -39134.281      194.80356     -38939.477      79491.529      14.619034    
   7126000   300.98287      882.28142     -39136.041      194.48654     -38941.554      79520.632      14.613684    
   7127000   301.05454      437.91691     -39126.895      194.53285     -38932.362      79567.459      14.605083    
   7128000   294.09237      750.7541      -39130.727      190.0341      -38940.693      79554.451      14.607471    
   7129000   308.19042     -642.04804     -39133.181      199.14385     -38934.038      79571.748      14.604296    
   7130000   299.51793      453.94447     -39132.665      193.53994     -38939.125      79548.722      14.608523    
   7131000   307.53527     -697.24205     -39137.889      198.72052     -38939.168      79559.236      14.606593    
   7132000   305.1394      -1867.6927     -39131.62       197.17237     -38934.448      79620.336      14.595384    
   7133000   292.70556     -1449.385      -39136.1        189.13798     -38946.962      79582.686      14.602289    
   7134000   302.36016      622.72529     -39133.237      195.37651     -38937.86       79544.071      14.609378    
   7135000   297.19557     -3004.8958     -39134.054      192.0393      -38942.015      79637.915      14.592162    
   7136000   298.12249     -447.20941     -39132.597      192.63825     -38939.959      79565.049      14.605526    
   7137000   304.27506      42.547414     -39129.646      196.61386     -38933.033      79570.519      14.604522    
   7138000   294.0878       84.713367     -39131.874      190.03115     -38941.842      79551.694      14.607978    
   7139000   308.38831     -2462.311      -39133.602      199.27172     -38934.33       79623.607      14.594784    
   7140000   298.71178     -691.49971     -39132.313      193.01903     -38939.294      79584.211      14.602009    
   7141000   302.49094      798.18689     -39127.328      195.46102     -38931.867      79558.455      14.606736    
   7142000   300.99744     -1114.7251     -39132.281      194.49595     -38937.785      79586.475      14.601594    
   7143000   295.40738      2458.94       -39134.172      190.88382     -38943.288      79475.097      14.622057    
   7144000   301.74651     -207.25225     -39131.286      194.97999     -38936.306      79575.418      14.603623    
   7145000   295.84075     -529.93811     -39132.848      191.16385     -38941.684      79570.445      14.604535    
   7146000   304.95018     -322.76648     -39131.036      197.0501      -38933.986      79571.78       14.60429     
   7147000   297.13864      483.48314     -39132.735      192.00251     -38940.732      79541.131      14.609918    
   7148000   310.47151      1042.1203     -39130.101      200.61783     -38929.483      79532.197      14.611559    
   7149000   298.36009     -256.44965     -39132.476      192.79177     -38939.684      79559.709      14.606506    
   7150000   301.92436      778.79653     -39127.543      195.09491     -38932.448      79564.438      14.605638    
   7151000   301.11021     -134.3001      -39134.652      194.56883     -38940.083      79554.348      14.60749     
   7152000   296.74586      781.41154     -39137.868      191.74871     -38946.119      79524.966      14.612887    
   7153000   298.3757      -2781.5546     -39130.463      192.80187     -38937.661      79638.264      14.592098    
   7154000   299.02411     -242.16372     -39138.602      193.22085     -38945.381      79548.634      14.60854     
   7155000   301.20402     -131.30016     -39133.83       194.62944     -38939.2        79550.037      14.608282    
   7156000   306.00814     -2693.6065     -39128.943      197.73373     -38931.21       79652.7        14.589454    
   7157000   297.10019      390.24041     -39132.769      191.97766     -38940.791      79549.153      14.608444    
   7158000   302.51556      1048.3531     -39135.899      195.47692     -38940.422      79522.228      14.613391    
   7159000   292.85486     -1205.556      -39134.65       189.23445     -38945.416      79581.454      14.602515    
   7160000   301.51604     -436.54459     -39132.928      194.83106     -38938.097      79582.289      14.602362    
   7161000   292.15008      995.24593     -39135.024      188.77904     -38946.245      79523.891      14.613085    
   7162000   301.28681     -905.38409     -39130.857      194.68294     -38936.174      79594.942      14.60004     
   7163000   298.22324     -2182.3836     -39133.045      192.70335     -38940.341      79616.35       14.596115    
   7164000   299.61224      168.7959      -39132.547      193.60088     -38938.946      79557.241      14.606959    
   7165000   302.52856     -563.30372     -39131.704      195.48532     -38936.219      79578.588      14.603041    
   7166000   300.39041      311.41997     -39134.847      194.10371     -38940.743      79530.034      14.611956    
   7167000   300.04433      838.77894     -39131.779      193.88008     -38937.899      79539.802      14.610162    
   7168000   301.78528      1912.174      -39129.394      195.00503     -38934.389      79525.766      14.61274     
   7169000   299.45648      223.73861     -39132.68       193.50023     -38939.18       79557.611      14.606891    
   7170000   300.07395     -1078.2257     -39128.255      193.89922     -38934.356      79610.908      14.597112    
   7171000   301.17952     -1061.9462     -39135.24       194.61361     -38940.626      79576.621      14.603402    
   7172000   300.40174     -360.55268     -39131.122      194.11103     -38937.011      79579.713      14.602834    
   7173000   296.61761      1729.5635     -39132.419      191.66583     -38940.753      79507.855      14.616032    
   7174000   308.45037      35.086701     -39131.651      199.31183     -38932.339      79568.233      14.604941    
   7175000   300.70146     -521.88911     -39135.821      194.3047      -38941.516      79558.764      14.60668     
   7176000   305.77499      2463.4964     -39132.014      197.58307     -38934.431      79490.357      14.61925     
   7177000   307.13173      443.36057     -39133.181      198.45976     -38934.721      79542.111      14.609738    
   7178000   296.53044     -1137.546      -39131.514      191.60951     -38939.904      79573.587      14.603959    
   7179000   304.38059     -43.159061     -39132.585      196.68205     -38935.903      79565.048      14.605526    
   7180000   304.13089     -925.8588      -39129.425      196.5207      -38932.904      79596.372      14.599778    
   7181000   296.85561     -2722.2989     -39131.197      191.81962     -38939.377      79624.904      14.594547    
   7182000   299.09784     -1403.5162     -39129.883      193.26849     -38936.615      79610.142      14.597253    
   7183000   297.13228     -573.10886     -39131.671      191.9984      -38939.672      79579.61       14.602853    
   7184000   299.08847     -318.07957     -39132.783      193.26243     -38939.52       79559.516      14.606542    
   7185000   300.35082      2709.072      -39134.833      194.07813     -38940.755      79474.719      14.622126    
   7186000   299.81165     -91.957371     -39132.776      193.72973     -38939.046      79556.362      14.607121    
   7187000   302.56664     -2110.7079     -39135.547      195.50993     -38940.037      79600.709      14.598983    
   7188000   297.16405     -1181.6634     -39134.274      192.01893     -38942.255      79587.071      14.601484    
   7189000   305.14968     -1542.0788     -39132.429      197.17902     -38935.25       79607.194      14.597793    
   7190000   298.02441     -704.80917     -39133.02       192.57487     -38940.445      79580.169      14.602751    
   7191000   302.71202      933.72252     -39131.157      195.60387     -38935.553      79539.146      14.610282    
   7192000   298.95517     -1811.0794     -39135.517      193.1763      -38942.341      79598.511      14.599386    
   7193000   303.98926      162.04747     -39134.454      196.42919     -38938.024      79553.178      14.607705    
   7194000   302.58805      573.44754     -39134.806      195.52377     -38939.283      79534.93       14.611057    
   7195000   301.84163     -614.33512     -39135.408      195.04145     -38940.366      79564.064      14.605707    
   7196000   300.07036      1166.4495     -39130.818      193.8969      -38936.921      79544.102      14.609372    
   7197000   297.83843     -185.45258     -39133.102      192.45469     -38940.647      79569.699      14.604672    
   7198000   301.71955     -1521.9342     -39129.336      194.96256     -38934.374      79617.756      14.595857    
   7199000   299.4913       494.07916     -39134.137      193.52273     -38940.614      79539.759      14.61017     
   7200000   298.71703      1909.2194     -39129.452      193.02242     -38936.43       79518.723      14.614035    
Loop time of 480.846 on 40 procs for 1000000 steps with 5000 atoms

Performance: 179.683 ns/day, 0.134 hours/ns, 2079.668 timesteps/s, 10.398 Matom-step/s
92.6% CPU use with 40 MPI tasks x 1 OpenMP threads

MPI task timing breakdown:
Section |  min time  |  avg time  |  max time  |%varavg| %total
---------------------------------------------------------------
Pair    | 282.59     | 298.12     | 308.87     |  35.5 | 62.00
Neigh   | 0          | 0          | 0          |   0.0 |  0.00
Comm    | 114.88     | 125        | 139.91     |  58.5 | 26.00
Output  | 0.07537    | 0.088369   | 0.26714    |   9.8 |  0.02
Modify  | 40.093     | 44.792     | 48.7       |  33.8 |  9.32
Other   |            | 12.84      |            |       |  2.67

Nlocal:            125 ave         135 max         111 min
Histogram: 1 0 4 3 5 8 7 7 2 3
Nghost:           1142 ave        1156 max        1132 min
Histogram: 3 2 7 7 7 6 3 4 0 1
Neighs:         6997.8 ave        7479 max        6219 min
Histogram: 1 0 2 4 5 6 4 10 3 5

Total # of neighbors = 279912
Ave neighs/atom = 55.9824
Neighbor list builds = 0
Dangerous builds = 0
	unfix           ffinal


# ----- FINAL OUTPUT -----
	write_data      annealed_W-Mo.data
System init for write_data ...




Total wall time: 1:02:54
