

# Styles
	units        metal
	atom_style   atomic
	pair_style   eam/fs

# Neighbour list
	neighbor        2.0 bin
	neigh_modify    check yes


# Boundary conditions
	boundary p p p


# ----------------- Atom Definition Section -----------------

read_data "en_min_W-Mo.data"
Reading data file ...
  orthogonal box = (0.046127475 0.046127475 0.11531869) to (31.603873 31.603873 79.009681)
  2 by 4 by 5 MPI processor grid
  reading atom labelmap ...
  reading atoms ...
  5000 atoms
  reading velocities ...
  5000 velocities
  read_data CPU = 0.034 seconds

# ----------------- Settings Section -----------------

include "annealing.in.settings"
# ----- SETTINGS -----
# Forcefield
	pair_coeff * * W-Mo.eam.fs W Mo

# Collection of atoms
	group alloy type  1 2
5000 atoms in group alloy


# ----------------- Run Section -----------------

include "annealing.in.run"
# Thermo output
	compute msd all msd
	compute myRDF all rdf 50

	fix 1 all ave/time 500 1 500 c_myRDF[*] file RDF.txt mode vector

	thermo          1000
	thermo_style    custom step temp press pe ke etotal vol density enthalpy c_msd[1] c_msd[2] c_msd[3]
	thermo_modify   flush yes

# Dump configuration
	dump            d1 all custom 50000 annealed_W-Mo.dump id type element x y z xu yu zu vx vy vz
	dump_modify     d1 element W Mo


# ----- INITIAL EQUILIBRATION AT Ti -----
	velocity        all create ${Ti} 872392 dist gaussian
	velocity        all create 300 872392 dist gaussian
	fix             feq all npt temp ${Ti} ${Ti} ${tdamp} aniso ${press} ${press} ${pdamp}
	fix             feq all npt temp 300 ${Ti} ${tdamp} aniso ${press} ${press} ${pdamp}
	fix             feq all npt temp 300 300 ${tdamp} aniso ${press} ${press} ${pdamp}
	fix             feq all npt temp 300 300 0.1 aniso ${press} ${press} ${pdamp}
	fix             feq all npt temp 300 300 0.1 aniso 1 ${press} ${pdamp}
	fix             feq all npt temp 300 300 0.1 aniso 1 1 ${pdamp}
	fix             feq all npt temp 300 300 0.1 aniso 1 1 1
	run             200000    # 200 ps
Neighbor list info ...
  update: every = 1 steps, delay = 0 steps, check = yes
  max neighbors/atom: 2000, page size: 100000
  master list distance cutoff = 7.3
  ghost atom cutoff = 7.3
  binsize = 3.65, bins = 9 9 22
  2 neighbor lists, perpetual/occasional/extra = 1 1 0
  (1) pair eam/fs, perpetual
      attributes: half, newton on
      pair build: half/bin/atomonly/newton
      stencil: half/bin/3d
      bin: standard
  (2) compute rdf, occasional, copy from (1)
      attributes: half, newton on
      pair build: copy
      stencil: none
      bin: none
Per MPI rank memory allocation (min/avg/max) = 4.088 | 4.092 | 4.097 Mbytes
   Step          Temp          Press          PotEng         KinEng         TotEng         Volume        Density        Enthalpy       c_msd[1]       c_msd[2]       c_msd[3]   
         0   300            2635.34       -39329.129      193.85144     -39135.277      78570.207      14.790458     -39006.041      0              0              0            
      1000   312.33849      914.69887     -39125.87       201.82422     -38924.045      79559.937      14.606464     -38878.624      0.0043833224   0.0040280233   0.012262457  
      2000   295.66457      1624.3585     -39134.253      191.05001     -38943.203      79507.709      14.616059     -38862.594      0.0042044696   0.0038710881   0.011866103  
      3000   300.44524     -982.85265     -39130.942      194.13914     -38936.803      79593.723      14.600264     -38985.629      0.0047546295   0.0042903624   0.012308301  
      4000   300.51401      1042.5594     -39133.417      194.18358     -38939.233      79531.546      14.611678     -38887.481      0.0047411424   0.0039814309   0.0099662046 
      5000   295.55048      806.73711     -39132.002      190.97629     -38941.025      79531.593      14.61167      -38900.979      0.0042158793   0.0044707432   0.0097750367 
      6000   302.69542     -316.30564     -39131.161      195.59314     -38935.567      79574.344      14.60382      -38951.277      0.0041868485   0.0048835476   0.011130096  
      7000   297.84396     -1588.8119     -39134.711      192.45827     -38942.252      79596.016      14.599843     -39021.184      0.0044076044   0.0046001275   0.013005503  
      8000   306.81495      1755.7311     -39133.431      198.25506     -38935.176      79512.665      14.615148     -38848.042      0.004051834    0.0035421923   0.015333745  
      9000   299.17862      2328.5938     -39132.423      193.32069     -38939.102      79495.545      14.618296     -38823.564      0.0038946617   0.0036830466   0.013098661  
     10000   303.19568      1025.9613     -39131.984      195.9164      -38936.068      79532.277      14.611544     -38885.139      0.0042679301   0.0045010625   0.010175432  
     11000   300.56198      173.56261     -39129.886      194.21458     -38935.671      79568.965      14.604807     -38927.052      0.0046870486   0.0043308288   0.010261439  
     12000   298.2363       119.47931     -39132.614      192.71179     -38939.902      79564.383      14.605648     -38933.969      0.0044437272   0.0036512514   0.012493178  
     13000   305.02067      857.98955     -39133.674      197.09565     -38936.579      79528.886      14.612167     -38893.99       0.0038027038   0.0037569999   0.014690157  
     14000   298.83206     -79.268937     -39134.41       193.09675     -38941.313      79549.314      14.608415     -38945.249      0.0040585212   0.0038998196   0.014350281  
     15000   299.53931      421.93863     -39131.606      193.55375     -38938.053      79545.274      14.609157     -38917.104      0.0044133685   0.0037628727   0.012749685  
     16000   299.56539     -191.26326     -39131.817      193.57061     -38938.246      79567.67       14.605045     -38947.745      0.0043585198   0.0043641264   0.010141877  
     17000   300.12969     -1154.2938     -39137.212      193.93524     -38943.276      79570.58       14.604511     -39000.603      0.0045623179   0.0048457838   0.0083875921 
     18000   300.58402      437.57172     -39132.558      194.22882     -38938.329      79537.772      14.610535     -38916.606      0.0043601554   0.004260703    0.0095565844 
     19000   298.36486     -208.04627     -39129.641      192.79486     -38936.847      79577.974      14.603154     -38947.18       0.0044657672   0.0037764501   0.014121539  
     20000   300.65583      692.01765     -39134.082      194.27522     -38939.807      79526.599      14.612587     -38905.457      0.0045413868   0.0039876162   0.013034248  
     21000   300.3239       73.94692      -39132.444      194.06074     -38938.383      79563.976      14.605723     -38934.711      0.0040917551   0.0039103781   0.01563764   
     22000   303.78794     -1489.817      -39129.641      196.2991      -38933.342      79621.328      14.595202     -39007.379      0.0044416453   0.004394809    0.013530629  
     23000   299.11427      35.809215     -39129.783      193.2791      -38936.504      79580.427      14.602703     -38934.725      0.0042720792   0.0043922345   0.011525177  
     24000   297.60621     -1618.2394     -39138.091      192.30464     -38945.786      79578.884      14.602987     -39026.163      0.0039363773   0.0048081238   0.011351925  
     25000   303.95349     -296.08642     -39131.634      196.40607     -38935.228      79580.623      14.602667     -38949.934      0.0042096335   0.0041902021   0.012230197  
     26000   293.33668      358.11106     -39133.272      189.54579     -38943.726      79548.067      14.608644     -38925.946      0.0042017935   0.0037695752   0.012475711  
     27000   295.34369     -253.29415     -39129.333      190.84266     -38938.49       79571.731      14.604299     -38951.07       0.0050211459   0.0036816698   0.012490559  
     28000   298.94697     -2451.1274     -39131.682      193.171       -38938.511      79620.51       14.595352     -39060.32       0.0045383477   0.0041067229   0.015274625  
     29000   301.86551      2121.7037     -39130.691      195.05688     -38935.634      79523.567      14.613144     -38830.324      0.0038561616   0.0045517348   0.012261317  
     30000   292.90363     -868.53536     -39131.874      189.26597     -38942.608      79581.585      14.602491     -38985.749      0.0043570006   0.0043298318   0.011825462  
     31000   296.41485     -110.38427     -39130.004      191.53482     -38938.469      79578.615      14.603036     -38943.952      0.0045135746   0.004166996    0.013177527  
     32000   297.54482      1428.5583     -39131.449      192.26497     -38939.184      79524.201      14.613028     -38868.277      0.0044818297   0.0039949411   0.014071379  
     33000   299.31209     -2120.2095     -39134.847      193.40693     -38941.44       79610.799      14.597132     -39046.792      0.0048955141   0.0042113648   0.013018259  
     34000   303.12775     -21.408425     -39133.309      195.8725      -38937.436      79556.108      14.607167     -38938.499      0.0042398376   0.0041979515   0.012023962  
     35000   303.09901      1084.3867     -39130.011      195.85393     -38934.157      79537.257      14.610629     -38880.325      0.003784461    0.0050542975   0.011157834  
     36000   301.60339      1152.6836     -39133.704      194.8875      -38938.816      79533.186      14.611377     -38881.596      0.0041563136   0.0047634834   0.010461945  
     37000   306.28204      673.09588     -39132.831      197.91072     -38934.921      79546.655      14.608903     -38901.502      0.0044919339   0.0038730748   0.012175173  
     38000   298.26987      1085.337      -39133.882      192.73348     -38941.149      79528.08       14.612315     -38887.275      0.0044999889   0.0040060877   0.010659667  
     39000   300.12358     -163.77992     -39133.685      193.93129     -38939.754      79571.653      14.604314     -38947.888      0.004292795    0.0048294609   0.011938347  
     40000   305.8887      -431.47769     -39132.218      197.65655     -38934.561      79578.527      14.603052     -38955.992      0.0038514179   0.0047595546   0.013647073  
     41000   305.53829      559.54251     -39135.795      197.43013     -38938.365      79530.901      14.611797     -38910.589      0.0034187425   0.0041339579   0.014357555  
     42000   304.45553     -341.22495     -39129.857      196.73047     -38933.126      79578.972      14.60297      -38950.075      0.0043306007   0.004687546    0.012687235  
     43000   297.14892      513.07827     -39130.63       192.00915     -38938.621      79559.952      14.606462     -38913.143      0.0049089099   0.0047269949   0.010283963  
     44000   293.1932       1637.0177     -39131.167      189.45308     -38941.714      79516.995      14.614352     -38860.468      0.0041062206   0.0043873833   0.0099833737 
     45000   303.95682      17.195136     -39133.107      196.40823     -38936.698      79567.679      14.605043     -38935.845      0.0042236303   0.004336876    0.012861305  
     46000   298.84948     -967.82108     -39133.55       193.10801     -38940.442      79581.797      14.602452     -38988.514      0.0036798869   0.0048975819   0.016409393  
     47000   298.49443      318.61652     -39127.796      192.87858     -38934.917      79571.488      14.604344     -38919.093      0.0037687972   0.0046128178   0.013652858  
     48000   296.70944     -727.29166     -39133.145      191.72517     -38941.42       79575.561      14.603596     -38977.542      0.0043677892   0.0041131045   0.011898068  
     49000   300.15884     -2781.8517     -39129.948      193.95407     -38935.994      79643.24       14.591186     -39074.278      0.0054233421   0.0043352933   0.012922274  
     50000   300.38281      1061.145      -39133.055      194.0988      -38938.956      79523.534      14.613151     -38886.287      0.0047164663   0.0041757536   0.010997127  
     51000   302.63         1571.2357     -39128.229      195.55087     -38932.678      79540.605      14.610014     -38854.674      0.0037034564   0.0044603279   0.013157296  
     52000   298.43773     -586.69482     -39131.65       192.84194     -38938.808      79586.313      14.601623     -38967.951      0.0040274924   0.0048212858   0.011175213  
     53000   302.33741      1714.1931     -39136.611      195.36181     -38941.249      79496.8        14.618065     -38856.194      0.0044689995   0.0044249674   0.0087323961 
     54000   302.18672      1184.5356     -39135.411      195.26444     -38940.147      79502.9        14.616943     -38881.368      0.0043766955   0.0039802889   0.01100431   
     55000   303.82986      902.96144     -39135.325      196.32619     -38938.999      79529.395      14.612074     -38894.177      0.0040441867   0.0037277042   0.012386285  
     56000   304.70881      1540.9176     -39134.252      196.89414     -38937.357      79511.805      14.615306     -38860.886      0.0041746192   0.0038190023   0.011617261  
     57000   298.9889       181.30945     -39133.726      193.19809     -38940.528      79546.71       14.608893     -38931.526      0.0043912638   0.0046852542   0.010816261  
     58000   301.28473      876.74787     -39128.467      194.6816      -38933.786      79569.053      14.604791     -38890.244      0.0041813852   0.0044176638   0.01238532   
     59000   303.17489      60.174724     -39136.318      195.90296     -38940.415      79538.574      14.610387     -38937.428      0.0041053685   0.0037162473   0.012737189  
     60000   303.91788     -2073.9729     -39128.182      196.38306     -38931.799      79633.564      14.59296      -39034.883      0.0052065035   0.0041007891   0.014517857  
     61000   296.1744       874.54017     -39132.542      191.37945     -38941.163      79528.998      14.612147     -38897.752      0.0045724887   0.0041276904   0.01079055   
     62000   303.7814       449.34211     -39132.263      196.29487     -38935.968      79549.972      14.608294     -38913.658      0.0039447138   0.004318575    0.010545988  
     63000   293.92551     -1020.4756     -39129.221      189.92628     -38939.295      79602.493      14.598655     -38989.996      0.0041060333   0.0046194065   0.012769668  
     64000   303.1025      -1412.3919     -39132.302      195.85619     -38936.446      79610.061      14.597268     -39006.626      0.0045971078   0.0047333853   0.016827335  
     65000   302.61722     -477.09717     -39131.917      195.54261     -38936.374      79560.917      14.606284     -38960.066      0.0042841505   0.0041590031   0.013325154  
     66000   293.81551     -1463.9281     -39128.333      189.8552      -38938.478      79621.743      14.595126     -39011.229      0.0044684289   0.0042692351   0.013651781  
     67000   298.81173     -514.36137     -39135.852      193.08361     -38942.769      79558.046      14.606811     -38968.31       0.0046916713   0.0045052489   0.011467415  
     68000   301.559        3593.0446     -39134.58       194.85882     -38939.722      79457.719      14.625255     -38761.53       0.0037374485   0.0053804724   0.0076123278 
     69000   301.55343     -824.72526     -39133.328      194.85522     -38938.472      79588.902      14.601148     -38979.441      0.0039754855   0.0046493697   0.012435639  
     70000   302.75995     -1508.1539     -39133.567      195.63484     -38937.933      79592.381      14.60051      -39012.854      0.0041075095   0.0041367096   0.014700215  
     71000   306.18771      1122.7968     -39132.418      197.84976     -38934.568      79529.025      14.612142     -38878.834      0.0042864987   0.0047251668   0.011638028  
     72000   298.91916      3614.7599     -39132.926      193.15303     -38939.773      79462.361      14.6244       -38760.494      0.0036498411   0.0041495341   0.010530464  
     73000   300.46868     -642.13733     -39132.344      194.15429     -38938.19       79568.438      14.604904     -38970.08       0.0038926665   0.0044410018   0.011397238  
     74000   292.53992      1174.0612     -39131.343      189.03095     -38942.312      79540.054      14.610115     -38884.026      0.0041659584   0.0047239747   0.0097644295 
     75000   303.84393      311.24756     -39130.836      196.33528     -38934.5        79562.933      14.605914     -38919.044      0.0040614117   0.0046259137   0.01141026   
     76000   298.36263      680.2387      -39133.489      192.79342     -38940.696      79526.296      14.612643     -38906.931      0.0041861721   0.0040140343   0.012270055  
     77000   301.52812     -1295.6834     -39134.97       194.83887     -38940.131      79585.77       14.601723     -39004.492      0.004523801    0.0038851009   0.012576038  
     78000   298.3069      -1212.9416     -39136.45       192.75741     -38943.692      79570.579      14.604511     -39003.932      0.0041445553   0.0043165428   0.012533683  
     79000   300.07807      1262.671      -39131.211      193.90189     -38937.309      79528.921      14.612161     -38874.633      0.0040188082   0.0045055992   0.0099217572 
     80000   293.98155     -1410.1981     -39133.488      189.96249     -38943.526      79594.079      14.600199     -39013.583      0.0040099844   0.0046322672   0.010689026  
     81000   295.94073      990.92384     -39131.373      191.22845     -38940.144      79530.993      14.61178      -38890.956      0.0039501605   0.004169032    0.012956275  
     82000   296.59662     -109.36486     -39130.02       191.65227     -38938.368      79569.033      14.604794     -38943.799      0.0043417649   0.0044707922   0.013954981  
     83000   303.27497      2503.0287     -39134.566      195.96763     -38938.598      79495.094      14.618378     -38814.406      0.0039289571   0.0039848738   0.012165541  
     84000   299.42567      2651.1989     -39131.924      193.48033     -38938.444      79502.02       14.617105     -38806.888      0.0041881197   0.0040284442   0.0096362387 
     85000   301.217        538.03395     -39133.383      194.63783     -38938.745      79535.882      14.610882     -38912.036      0.0046325093   0.0043859      0.0096013151 
     86000   300.66824      1226.9228     -39139.756      194.28324     -38945.473      79499.791      14.617515     -38884.593      0.0042249515   0.0041077069   0.009882949  
     87000   301.63501     -1643.2786     -39131.08       194.90794     -38936.172      79604.138      14.598354     -39017.818      0.003964734    0.0045485496   0.013892695  
     88000   302.48472     -49.030974     -39135.781      195.457       -38940.324      79560.578      14.606346     -38942.759      0.0038568316   0.0042992221   0.013192251  
     89000   306.97907     -208.6488      -39131.214      198.36111     -38932.853      79575.651      14.60358      -38943.216      0.0040307533   0.0039839009   0.015697757  
     90000   301.57656     -342.27945     -39134.712      194.87017     -38939.842      79570.377      14.604548     -38956.841      0.0042533241   0.0040996577   0.012305426  
     91000   303.39702      1032.602      -39131.344      196.0465      -38935.298      79549.331      14.608412     -38884.028      0.0046722494   0.0037007374   0.0094618331 
     92000   298.73934      1571.9115     -39132.402      193.03683     -38939.366      79526.264      14.612649     -38861.342      0.0047871674   0.0041050707   0.0094965961 
     93000   302.84086      2191.0423     -39132.949      195.68712     -38937.262      79500.983      14.617296     -38828.541      0.0041771065   0.0040740431   0.011634212  
     94000   300.1111      -590.4721      -39128.964      193.92323     -38935.04       79601.677      14.598805     -38964.377      0.0041349867   0.003999449    0.015384647  
     95000   298.61274     -1947.8945     -39133.53       192.95503     -38940.575      79612.988      14.596731     -39037.367      0.0042918494   0.0041343571   0.012922164  
     96000   292.02938     -1859.8439     -39133.372      188.70105     -38944.671      79607.971      14.597651     -39037.082      0.0052086051   0.0045735058   0.01101491   
     97000   297.42546     -223.13847     -39130.039      192.18784     -38937.852      79574.445      14.603801     -38948.934      0.0044717976   0.0042857269   0.012569873  
     98000   296.42047      701.36879     -39137.94       191.53845     -38946.401      79520.636      14.613683     -38911.59       0.0035772932   0.0039188424   0.012562253  
     99000   296.97099      1082.6078     -39131.255      191.89418     -38939.361      79540.033      14.610119     -38885.615      0.0036669458   0.0044747417   0.01277393   
    100000   301.42602      3200.265      -39136.279      194.7729      -38941.506      79464.735      14.623963     -38782.78       0.0040525188   0.0042200772   0.0087596532 
    101000   299.75032     -2481.7003     -39130.97       193.6901      -38937.28       79630.76       14.593473     -39060.625      0.0046152177   0.0045561144   0.010890332  
    102000   297.38246      728.57545     -39130.298      192.16006     -38938.138      79554.871      14.607394     -38901.961      0.0044144765   0.003774657    0.012988541  
    103000   298.59707     -1126.5545     -39132.221      192.94491     -38939.276      79586.353      14.601616     -38995.237      0.0047096774   0.0039432639   0.013907458  
    104000   305.97695      130.39749     -39132.391      197.71358     -38934.678      79554.665      14.607432     -38928.203      0.0043738242   0.0045356043   0.012015621  
    105000   299.51374     -612.16738     -39131.941      193.53723     -38938.404      79575.994      14.603517     -38968.808      0.0039244045   0.0049131456   0.010049132  
    106000   302.00517      459.02583     -39135.034      195.14712     -38939.887      79546.336      14.608962     -38917.097      0.0042582485   0.0040703128   0.01050082   
    107000   303.52239     -468.43599     -39134.051      196.12751     -38937.924      79560.03       14.606447     -38961.185      0.0044065204   0.0042903868   0.012759821  
    108000   302.39222      679.24303     -39136.858      195.39722     -38941.461      79530.045      14.611954     -38907.744      0.0042015513   0.0036306898   0.014158128  
    109000   299.33365      984.29948     -39133.649      193.42086     -38940.228      79537.122      14.610654     -38891.365      0.0041374419   0.00376162     0.012317968  
    110000   305.48939     -997.82143     -39133.804      197.39852     -38936.406      79594.273      14.600163     -38985.976      0.0044786891   0.0044650786   0.012450196  
    111000   292.59133     -98.032167     -39126.831      189.06417     -38937.767      79587.197      14.601461     -38942.636      0.0043669598   0.0047024273   0.012458814  
    112000   292.03928     -99.663815     -39127.756      188.70745     -38939.049      79587.471      14.601411     -38944          0.0039707305   0.0044700949   0.011663661  
    113000   296.28068     -1195.172      -39130.862      191.44812     -38939.414      79599.819      14.599146     -38998.793      0.0045089754   0.0040882146   0.013238324  
    114000   296.36787      137.78853     -39130.259      191.50446     -38938.754      79572.704      14.604121     -38931.911      0.0048848131   0.0044456903   0.011487893  
    115000   303.25635      93.090684     -39134.191      195.9556      -38938.236      79547.933      14.608668     -38933.614      0.0049663063   0.0041392269   0.0091825569 
    116000   301.19612     -492.4935      -39132.844      194.62434     -38938.219      79568.419      14.604907     -38962.678      0.0041626357   0.0043613465   0.010325567  
    117000   296.74392      1584.9472     -39131.292      191.74746     -38939.544      79519.756      14.613845     -38860.88       0.0041307027   0.0043623584   0.011191278  
    118000   306.10423     -699.91903     -39130.316      197.79582     -38932.52       79594.422      14.600136     -38967.292      0.0047878633   0.0042038767   0.012698314  
    119000   299.92312      432.56963     -39134.434      193.80176     -38940.633      79541.076      14.609928     -38919.157      0.0042653404   0.0036082847   0.014775282  
    120000   301.38829      304.44122     -39129.07       194.74851     -38934.322      79570.673      14.604494     -38919.202      0.0042989344   0.0040739769   0.012605156  
    121000   297.95538     -116.85351     -39134.106      192.53027     -38941.575      79557.358      14.606938     -38947.378      0.0042471578   0.0041722947   0.010807583  
    122000   299.38352      1880.2986     -39132.357      193.45308     -38938.904      79516.723      14.614402     -38845.584      0.0045758498   0.003842517    0.0080713896 
    123000   304.16457     -819.95347     -39133.739      196.54246     -38937.197      79583.698      14.602103     -38977.926      0.0046225553   0.0038568434   0.011430939  
    124000   292.85715      107.33123     -39131.211      189.23593     -38941.975      79569.635      14.604684     -38936.644      0.004041279    0.0039927641   0.01384489   
    125000   295.0617      -673.74291     -39129.811      190.66045     -38939.15       79584.692      14.601921     -38972.617      0.0040252486   0.0042404903   0.014301723  
    126000   298.53691     -1260.21       -39131.001      192.90603     -38938.095      79601.251      14.598883     -39000.706      0.003732283    0.004648406    0.014516543  
    127000   295.55734     -356.36877     -39133.577      190.98072     -38942.597      79564.621      14.605604     -38960.294      0.0041994767   0.0042497559   0.012567408  
    128000   301.95959     -267.54419     -39131.11       195.11767     -38935.992      79571.468      14.604348     -38949.28       0.0045255792   0.0041768384   0.010972426  
    129000   297.02927      2125.1905     -39134.976      191.93184     -38943.044      79493.2        14.618727     -38837.601      0.0047373971   0.0035252418   0.010144667  
    130000   302.11214      1739.6676     -39132.599      195.21624     -38937.383      79510.435      14.615558     -38851.049      0.0044003612   0.0037021207   0.011284267  
    131000   293.52594      1036.1423     -39132.719      189.66808     -38943.051      79531.679      14.611654     -38891.617      0.0038029295   0.0038871027   0.012388203  
    132000   301.91858      631.89702     -39130.355      195.09117     -38935.264      79544.04       14.609383     -38903.892      0.0038433324   0.0043919653   0.013564943  
    133000   300.78257      530.71691     -39131.673      194.35711     -38937.316      79548.237      14.608613     -38910.965      0.0040425888   0.0042865691   0.012818797  
    134000   308.376       -893.76901     -39133.897      199.26377     -38934.633      79581.489      14.602508     -38979.027      0.004312352    0.0039345146   0.012996034  
    135000   294.66233     -1483.074      -39129.716      190.40239     -38939.314      79621.017      14.595259     -39013.016      0.0051045706   0.0039808561   0.010643439  
    136000   300.37687     -1338.6319     -39129.362      194.09496     -38935.267      79610.429      14.5972       -39001.783      0.0045723078   0.0046464635   0.011278959  
    137000   297.12255     -1273.6662     -39132.959      191.99212     -38940.967      79598.597      14.59937      -39004.245      0.004140143    0.0045134571   0.012709722  
    138000   296.87379     -2248.0558     -39129.526      191.83137     -38937.695      79635.267      14.592647     -39049.433      0.0041242561   0.0043261942   0.01510269   
    139000   297.20363      1242.5105     -39132.356      192.0445      -38940.312      79528.406      14.612255     -38878.637      0.0040297241   0.0038590867   0.01415476   
    140000   301.14582      1222.5593     -39131.84       194.59183     -38937.248      79537.552      14.610575     -38876.556      0.0039954456   0.0042350212   0.012985565  
    141000   302.71315      1782.7827     -39137.476      195.6046      -38941.871      79502.54       14.617009     -38853.407      0.0037960938   0.0039844653   0.010110451  
    142000   301.33363      1777.017      -39135.504      194.71319     -38940.79       79506.645      14.616255     -38852.607      0.0043174639   0.0038947603   0.010433299  
    143000   306.62562      1973.9093     -39130.76       198.13272     -38932.628      79517.894      14.614187     -38834.66       0.0042923015   0.0043849247   0.011308703  
    144000   296.48574      2398.6012     -39132.261      191.58062     -38940.68       79495.639      14.618278     -38821.668      0.0046205518   0.0034587085   0.012281203  
    145000   304.12078     -728.25748     -39135.833      196.51417     -38939.319      79556.561      14.607084     -38975.48       0.0047620773   0.0035749852   0.011203345  
    146000   296.09771     -362.58016     -39133.383      191.32989     -38942.053      79567.453      14.605085     -38960.059      0.0044415339   0.0041570894   0.011745992  
    147000   304.34688     -348.84427     -39131.619      196.66027     -38934.958      79584.034      14.602042     -38952.286      0.0039696933   0.0045664047   0.01399584   
    148000   301.77537      229.80089     -39134.609      194.99863     -38939.61       79549.253      14.608426     -38928.2        0.0035178648   0.0044855687   0.012473656  
    149000   292.62852     -457.29795     -39132.499      189.0882      -38943.411      79580.691      14.602655     -38966.125      0.0044927448   0.0039732625   0.01288848   
    150000   299.33209      2320.3722     -39131.485      193.41985     -38938.066      79509.079      14.615807     -38822.916      0.0044105751   0.0036461606   0.011622074  
    151000   301.85373      1428.8994     -39135.034      195.04927     -38939.985      79514.231      14.61486      -38869.07       0.004106911    0.0038643375   0.010224632  
    152000   297.01746      973.98464     -39132.485      191.92421     -38940.56       79530.332      14.611901     -38892.213      0.0047837804   0.0037831677   0.0098642152 
    153000   300.01667      478.72371     -39135.159      193.86221     -38941.296      79544.72       14.609258     -38917.529      0.0044291028   0.0043551177   0.011336367  
    154000   301.67474      1768.4433     -39130.62       194.93361     -38935.687      79518.839      14.614013     -38847.916      0.003421859    0.0045260254   0.013648854  
    155000   297.96972     -275.71481     -39134.85       192.53953     -38942.311      79552.846      14.607766     -38956.001      0.003747934    0.0041835878   0.012752366  
    156000   298.0412      -572.23721     -39131.032      192.58572     -38938.446      79592.14       14.600554     -38966.873      0.004975181    0.0039415412   0.01313745   
    157000   294.65588      303.44435     -39136.231      190.39822     -38945.833      79534.682      14.611102     -38930.769      0.0047904998   0.0041843122   0.010261534  
    158000   303.44543      470.16398     -39132.901      196.07778     -38936.823      79547.391      14.608768     -38913.479      0.0043353148   0.00475062     0.0081084899 
    159000   303.25149      559.81607     -39130.53       195.95246     -38934.578      79554.147      14.607527     -38906.781      0.003918222    0.004528775    0.011758737  
    160000   300.17942      2088.327      -39134.838      193.96738     -38940.87       79495.501      14.618304     -38837.253      0.003976509    0.0040755801   0.013629575  
    161000   304.08781     -799.33879     -39129.719      196.49287     -38933.226      79595.416      14.599953     -38972.937      0.0044498466   0.0042534602   0.015264584  
    162000   298.28916      404.12282     -39132.605      192.74595     -38939.859      79545.658      14.609086     -38919.795      0.004098308    0.004585789    0.010730133  
    163000   302.24667      528.33124     -39131.319      195.30317     -38936.016      79540.892      14.609961     -38909.787      0.0043528068   0.004266816    0.010111083  
    164000   303.66469     -2618.6249     -39130.56       196.21946     -38934.34       79643.476      14.591143     -39064.511      0.0048038654   0.004631858    0.013471857  
    165000   299.82283     -33.227068     -39134.733      193.73696     -38940.996      79552.222      14.607881     -38942.645      0.0045233218   0.0041842555   0.011816621  
    166000   297.11271     -742.6477      -39131.343      191.98576     -38939.357      79585.788      14.60172      -38976.247      0.0043702421   0.0037352893   0.015622016  
    167000   296.14614      195.72133     -39131.543      191.36119     -38940.182      79560.511      14.606359     -38930.463      0.0042234869   0.0037938446   0.015057116  
    168000   300.49365      1106.9666     -39130.631      194.17043     -38936.46       79534.797      14.611081     -38881.508      0.0040547393   0.0043066511   0.01069001   
    169000   297.19342      365.85085     -39131.453      192.03791     -38939.416      79568.401      14.60491      -38921.246      0.0042881481   0.0043079736   0.01128947   
    170000   300.40638      184.21395     -39131.806      194.11403     -38937.692      79564.788      14.605574     -38928.544      0.0038341372   0.0041603161   0.013413179  
    171000   299.63109      1676.5151     -39130.141      193.61306     -38936.528      79528.8        14.612183     -38853.31       0.0033643791   0.0048522254   0.011588166  
    172000   302.35082     -7.5664485     -39134.826      195.37047     -38939.455      79537.341      14.610614     -38939.831      0.0041882708   0.0040507707   0.010816536  
    173000   302.28125     -545.88063     -39133.452      195.32552     -38938.127      79558.51       14.606726     -38965.233      0.0043187852   0.0039607873   0.012358172  
    174000   301.15951      583.08866     -39135.327      194.60068     -38940.726      79528.993      14.612147     -38911.783      0.0043781993   0.0038162471   0.012313253  
    175000   303.69376      1101.703      -39135.094      196.23824     -38938.856      79513.344      14.615023     -38884.18       0.0037853563   0.0041719505   0.011737875  
    176000   298.29637     -656.50194     -39131.533      192.7506      -38938.782      79589.555      14.601029     -38971.395      0.0039599499   0.0046861891   0.012740391  
    177000   295.47274      468.4705      -39136.836      190.92605     -38945.91       79528.252      14.612284     -38922.657      0.004188962    0.004025209    0.013026944  
    178000   303.64242     -411.12966     -39133.177      196.20507     -38936.972      79570.58       14.604511     -38957.39       0.0044306065   0.0038251574   0.015452172  
    179000   297.55558      735.3285      -39130.42       192.27192     -38938.148      79548.389      14.608585     -38901.639      0.0041331166   0.0039302138   0.013773378  
    180000   302.31365      296.29984     -39133.302      195.34645     -38937.956      79553.673      14.607614     -38923.243      0.0039613251   0.00443209     0.012581525  
    181000   304.77325      201.32346     -39133.321      196.93577     -38936.385      79537.355      14.610611     -38926.391      0.0039836175   0.0044231734   0.011108808  
    182000   293.96345      1034.2058     -39138.36       189.95079     -38948.409      79517.059      14.61434      -38897.081      0.0041579189   0.0039970297   0.0099933535 
    183000   301.48477     -267.27005     -39132.211      194.81086     -38937.4        79570.948      14.604443     -38950.674      0.0042275874   0.004309181    0.012269905  
    184000   294.01441     -1695.5075     -39134.766      189.98372     -38944.782      79594.717      14.600082     -39029.013      0.0041564501   0.0039883478   0.016726219  
    185000   303.46098     -521.78468     -39131.135      196.08783     -38935.047      79589.739      14.600995     -38960.967      0.0041818578   0.0038962632   0.015815476  
    186000   302.89898     -493.77587     -39131.294      195.72468     -38935.569      79586.772      14.601539     -38960.097      0.0043851096   0.0039484217   0.01322733   
    187000   299.36046      2209.4542     -39134.865      193.43819     -38941.427      79504.595      14.616632     -38831.787      0.0042515732   0.0039938137   0.010999338  
    188000   307.92837      1342.7753     -39131.088      198.97453     -38932.114      79526.047      14.612689     -38865.463      0.0043355344   0.0042215532   0.010337595  
    189000   296.9321      -258.14577     -39131.711      191.86905     -38939.842      79565.387      14.605464     -38952.661      0.0039860168   0.0043588681   0.010176922  
    190000   297.57192      2241.3988     -39130.334      192.28248     -38938.051      79506.946      14.616199     -38826.823      0.0037456303   0.0043568664   0.011530096  
    191000   297.81008      483.74208     -39131.509      192.43638     -38939.073      79555.536      14.607272     -38915.053      0.0039592785   0.0045184722   0.01368223   
    192000   298.55106     -763.01085     -39131.81       192.91518     -38938.895      79581.164      14.602568     -38976.795      0.0049229206   0.0041249499   0.011191069  
    193000   299.09223     -1040.4836     -39136.796      193.26487     -38943.531      79564.722      14.605586     -38995.202      0.004973311    0.0038546914   0.01034623   
    194000   300.92118     -115.39363     -39134.748      194.44668     -38940.302      79553.482      14.607649     -38946.031      0.0039997613   0.0043559946   0.013883143  
    195000   300.89783     -1088.0059     -39128.19       194.43159     -38933.758      79595.919      14.599861     -38987.81       0.0043456048   0.0045271205   0.01542642   
    196000   300.70779      895.61328     -39132.801      194.30879     -38938.492      79547.865      14.608681     -38894.025      0.0044332372   0.0038724729   0.013247705  
    197000   301.71123      1679.3846     -39134.374      194.95719     -38939.417      79510.103      14.615619     -38856.075      0.0042375852   0.0038042909   0.010638267  
    198000   302.0946       399.58232     -39131.684      195.20491     -38936.479      79557.964      14.606826     -38916.637      0.0045136318   0.004397627    0.010393136  
    199000   292.79274     -1673.6408     -39133.683      189.19431     -38944.489      79603.284      14.59851      -39027.643      0.0042170435   0.0049041395   0.010687751  
    200000   299.68049     -2065.0543     -39131.528      193.64498     -38937.883      79629.446      14.593714     -39040.518      0.0040741224   0.0044780169   0.015819125  
Loop time of 96.2061 on 40 procs for 200000 steps with 5000 atoms

Performance: 179.614 ns/day, 0.134 hours/ns, 2078.871 timesteps/s, 10.394 Matom-step/s
92.7% CPU use with 40 MPI tasks x 1 OpenMP threads

MPI task timing breakdown:
Section |  min time  |  avg time  |  max time  |%varavg| %total
---------------------------------------------------------------
Pair    | 57.303     | 59.476     | 62.396     |  16.4 | 61.82
Neigh   | 0          | 0          | 0          |   0.0 |  0.00
Comm    | 22.661     | 24.95      | 27.398     |  24.9 | 25.93
Output  | 0.054364   | 0.068683   | 0.083949   |   3.3 |  0.07
Modify  | 8.8312     | 9.4664     | 10.113     |  12.0 |  9.84
Other   |            | 2.245      |            |       |  2.33

Nlocal:            125 ave         136 max         113 min
Histogram: 1 3 5 3 8 4 7 2 3 4
Nghost:           1142 ave        1154 max        1131 min
Histogram: 4 3 2 7 4 8 3 5 3 1
Neighs:           7000 ave        7628 max        6403 min
Histogram: 3 4 2 6 5 9 4 0 4 3

Total # of neighbors = 280000
Ave neighs/atom = 56
Neighbor list builds = 0
Dangerous builds = 0
	unfix           feq


# ----- HEATING FROM Ti TO Thigh -----
	fix             fheat all npt temp ${Ti} ${Thigh} ${tdamp} aniso ${press} ${press} ${pdamp}
	fix             fheat all npt temp 300 ${Thigh} ${tdamp} aniso ${press} ${press} ${pdamp}
	fix             fheat all npt temp 300 3800 ${tdamp} aniso ${press} ${press} ${pdamp}
	fix             fheat all npt temp 300 3800 0.1 aniso ${press} ${press} ${pdamp}
	fix             fheat all npt temp 300 3800 0.1 aniso 1 ${press} ${pdamp}
	fix             fheat all npt temp 300 3800 0.1 aniso 1 1 ${pdamp}
	fix             fheat all npt temp 300 3800 0.1 aniso 1 1 1
	run             2000000   # 2 ns
Per MPI rank memory allocation (min/avg/max) = 5.351 | 5.354 | 5.359 Mbytes
   Step          Temp          Press          PotEng         KinEng         TotEng         Volume        Density        Enthalpy       c_msd[1]       c_msd[2]       c_msd[3]   
    200000   299.68049     -2065.0543     -39131.528      193.64498     -38937.883      79629.446      14.593714     -39040.518      0.0040741224   0.0044780169   0.015819125  
    201000   304.37818     -2623.0815     -39133.198      196.68049     -38936.518      79623.258      14.594848     -39066.877      0.0041005781   0.0043263461   0.013241288  
    202000   301.83692     -1173.3137     -39124.558      195.0384      -38929.52       79619.119      14.595607     -38987.827      0.0046831692   0.0043955589   0.013660037  
    203000   306.88089      323.39869     -39133.873      198.29767     -38935.575      79550.114      14.608268     -38919.518      0.0049952128   0.0043023711   0.0098330048 
    204000   309.86923      323.23811     -39127.826      200.22866     -38927.598      79573.124      14.604044     -38911.544      0.0044082386   0.0041831286   0.012083258  
    205000   305.4334       2137.9676     -39129.242      197.36235     -38931.88       79528.33       14.612269     -38825.756      0.0039771917   0.0040709576   0.013365746  
    206000   308.03812     -735.28063     -39127.898      199.04544     -38928.852      79616.479      14.596091     -38965.391      0.0039752081   0.0050046938   0.014171683  
    207000   319.57349      1238.0331     -39120.989      206.49927     -38914.489      79581.859      14.602441     -38852.995      0.0042565879   0.0043338394   0.013078916  
    208000   312.76609     -830.58019     -39124.494      202.10052     -38922.393      79612.043      14.596904     -38963.664      0.0051722789   0.0045534116   0.010117157  
    209000   317.35612      1617.8649     -39120.393      205.06647     -38915.327      79570.741      14.604481     -38834.977      0.0048937106   0.0047166407   0.0099145961 
    210000   316.28504     -253.48837     -39122.552      204.37437     -38918.178      79616.192      14.596144     -38930.774      0.0047486044   0.0046231873   0.011858739  
    211000   326.86174      2162.303      -39121.285      211.20873     -38910.076      79544.074      14.609377     -38802.723      0.0041029246   0.0040349395   0.013261688  
    212000   320.62303      1905.7659     -39119.2        207.17745     -38912.023      79556.232      14.607144     -38817.392      0.0044748202   0.0042217715   0.014923045  
    213000   315.77647     -247.29596     -39113.465      204.04574     -38909.419      79649.339      14.590069     -38921.713      0.0046395868   0.0046891456   0.013951207  
    214000   323.37279     -342.48122     -39118.031      208.95427     -38909.077      79628.605      14.593868     -38926.098      0.0050265227   0.0047924119   0.011221023  
    215000   325.05543     -69.45306      -39115.299      210.04154     -38905.257      79643.079      14.591216     -38908.71       0.0049230742   0.005354293    0.010401301  
    216000   323.94112      1484.8633     -39117.427      209.32151     -38908.106      79583.725      14.602098     -38834.349      0.0045332202   0.0050716688   0.010585006  
    217000   334.30725     -548.56438     -39113.124      216.01981     -38897.105      79680.128      14.584432     -38924.386      0.0047709619   0.0050354877   0.012979092  
    218000   325.47406     -2627.673      -39115.051      210.31205     -38904.738      79714.958      14.578059     -39035.476      0.0049310225   0.0049870502   0.016312209  
    219000   334.24339     -158.87551     -39113.092      215.97854     -38897.114      79660.268      14.588068     -38905.013      0.0043012832   0.004788517    0.020887594  
    220000   341.17379      2084.0791     -39108.44       220.45677     -38887.983      79612.817      14.596762     -38784.424      0.0047292526   0.0045096923   0.014912852  
    221000   332.38327     -1075.4154     -39110.045      214.77658     -38895.269      79688.083      14.582976     -38948.757      0.004863714    0.0050014003   0.014424114  
    222000   342.18846      401.97376     -39110.286      221.11242     -38889.173      79659.708      14.58817      -38869.187      0.0053855555   0.0054291185   0.011042558  
    223000   340.42915     -380.6202      -39105.091      219.9756      -38885.115      79701.321      14.580553     -38904.049      0.0056616725   0.0048949702   0.011680517  
    224000   343.95672     -70.696786     -39109.122      222.25502     -38886.867      79658.194      14.588447     -38890.381      0.0052139496   0.004601562    0.012689725  
    225000   349.78816      841.37138     -39101.603      226.02313     -38875.58       79679.658      14.584518     -38833.737      0.0049592999   0.0055899311   0.016047288  
    226000   342.56704     -520.63698     -39103.259      221.35705     -38881.902      79709.247      14.579104     -38907.804      0.0045189759   0.0052436991   0.020073201  
    227000   350.57136     -419.33884     -39097.989      226.52921     -38871.46       79724.406      14.576332     -38892.326      0.004560395    0.0050185737   0.020577048  
    228000   345.38553      579.93021     -39098.2        223.17828     -38875.021      79696.775      14.581385     -38846.174      0.0050890191   0.0051595246   0.01560176   
    229000   349.55803      1017.424      -39102.317      225.87442     -38876.442      79673.91       14.58557      -38825.847      0.0049109628   0.0060346844   0.014460418  
    230000   352.27339      92.936986     -39098.697      227.62901     -38871.068      79714.479      14.578147     -38866.444      0.0057784374   0.0053964879   0.012383147  
    231000   347.67442     -344.00818     -39098.192      224.65729     -38873.535      79719.237      14.577277     -38890.652      0.0056935786   0.0048666223   0.011980345  
    232000   352.03743      1041.9065     -39092.794      227.47654     -38865.317      79721.797      14.576809     -38813.474      0.005789597    0.0058167295   0.013794243  
    233000   343.2687       541.59993     -39094.982      221.81044     -38873.171      79719.884      14.577158     -38846.223      0.0048973042   0.0064825808   0.014391968  
    234000   359.02955      906.76083     -39092.797      231.99465     -38860.802      79716.34       14.577806     -38815.686      0.0049032993   0.0052935242   0.014440219  
    235000   360.38852      1790.9128     -39094.631      232.87278     -38861.759      79674.334      14.585492     -38772.699      0.0049205265   0.0050657593   0.014534183  
    236000   367.43716      1509.4234     -39090.557      237.42741     -38853.13       79710.562      14.578863     -38778.034      0.0051152254   0.0052315034   0.018755482  
    237000   365.84684      2394.0855     -39088.498      236.39979     -38852.098      79701.564      14.580509     -38733.002      0.0051619854   0.0047061155   0.018302144  
    238000   370.11957     -267.13335     -39093.47       239.1607      -38854.309      79738.977      14.573668     -38867.604      0.0055034592   0.0047761099   0.018615748  
    239000   368.7906      -1668.5012     -39086.124      238.30196     -38847.822      79803.464      14.561891     -38930.929      0.005653828    0.0049075828   0.021507899  
    240000   376.8409      -1426.4897     -39085.578      243.50383     -38842.074      79816.877      14.559444     -38913.139      0.0059826654   0.0055413058   0.016519302  
    241000   373.15516     -608.23649     -39089.887      241.12222     -38848.765      79768.095      14.568348     -38879.048      0.0059943049   0.0052820894   0.014220673  
    242000   378.50884     -576.16232     -39084.128      244.58161     -38839.546      79808.037      14.561057     -38868.246      0.0061502069   0.0054021073   0.013933892  
    243000   379.71723     -1870.3325     -39086.203      245.36244     -38840.841      79819.093      14.55904      -38934.019      0.0062941026   0.0059970503   0.012855563  
    244000   372.40224      1355.3123     -39080.799      240.6357      -38840.163      79758.928      14.570023     -38772.693      0.0059150001   0.005645018    0.013671628  
    245000   372.16838      1002.6691     -39079.703      240.48459     -38839.218      79772.323      14.567576     -38789.296      0.0060433003   0.005382743    0.016524364  
    246000   375.26454     -384.58062     -39078.812      242.48524     -38836.327      79817.604      14.559312     -38855.486      0.0054261707   0.0059246982   0.020023857  
    247000   383.13351     -718.01794     -39079.937      247.56994     -38832.367      79820.974      14.558697     -38868.139      0.0059346688   0.0057821407   0.018358717  
    248000   391.30445     -1219.1348     -39076.977      252.84977     -38824.127      79837.116      14.555753     -38884.877      0.006086676    0.0060423089   0.017711291  
    249000   383.77951      1771.2376     -39075.562      247.98737     -38827.574      79765.069      14.568901     -38739.393      0.006267273    0.0055488116   0.016529781  
    250000   379.91859      1496.4838     -39079.249      245.49255     -38833.757      79762.261      14.569414     -38759.256      0.005919823    0.0053752447   0.013806985  
    251000   390.42075     -1369.2143     -39074.112      252.27875     -38821.833      79868.154      14.550097     -38890.088      0.006475548    0.0063995423   0.015805927  
    252000   385.60493      633.40048     -39076.901      249.16691     -38827.734      79797.458      14.562987     -38796.187      0.0060644625   0.0059933642   0.018050594  
    253000   387.24439     -479.21512     -39066.765      250.22627     -38816.539      79849.647      14.553469     -38840.422      0.0053051273   0.0063555792   0.020343175  
    254000   401.21669      1414.7257     -39068.481      259.25478     -38809.226      79817.292      14.559369     -38738.747      0.0051571999   0.0058916235   0.021536092  
    255000   399.68016     -1121.1094     -39076.672      258.26191     -38818.41       79843.943      14.554509     -38874.28       0.0057037758   0.0064596932   0.02144834   
    256000   406.72408      425.71444     -39073.202      262.8135      -38810.388      79814.826      14.559818     -38789.181      0.0052947871   0.0063814176   0.021964461  
    257000   397.09377     -1761.5234     -39067.863      256.59066     -38811.272      79905.983      14.543209     -38899.126      0.0059050922   0.006212128    0.022621001  
    258000   394.8625      -583.5534      -39065.939      255.14888     -38810.79       79864.915      14.550687     -38839.879      0.0063256746   0.0062781941   0.020022583  
    259000   405.9261      -997.33188     -39062.611      262.29786     -38800.313      79894.151      14.545362     -38850.046      0.0062824472   0.0071686775   0.020607214  
    260000   401.4093      -2901.3851     -39062.019      259.37923     -38802.64       79964.207      14.532619     -38947.447      0.0054796203   0.0072814962   0.022324406  
    261000   401.58194      168.18473     -39061.918      259.49079     -38802.427      79866.847      14.550335     -38794.043      0.0055966293   0.0064330705   0.020314773  
    262000   404.75874     -1760.6058     -39059.568      261.54355     -38798.024      79926.417      14.53949      -38885.854      0.0063979542   0.0076709447   0.021896803  
    263000   405.70577      811.02372     -39060.601      262.15549     -38798.446      79849.911      14.553421     -38758.026      0.0056161417   0.0064840793   0.018076172  
    264000   415.42478      2645.6931     -39057.264      268.43564     -38788.829      79821.279      14.558641     -38657.019      0.0057290048   0.0059732571   0.019465798  
    265000   415.26565      762.21153     -39060.507      268.33282     -38792.174      79865.447      14.55059      -38754.179      0.0065943445   0.0065542856   0.019834228  
    266000   413.82881     -1428.729      -39061.809      267.40437     -38794.404      79916.238      14.541342     -38865.669      0.0066503834   0.0065350328   0.020093263  
    267000   418.60878      2373.4337     -39057.076      270.49305     -38786.583      79835.689      14.556014     -38668.316      0.0068997279   0.0054719657   0.017010165  
    268000   411.88494     -1673.3807     -39055.251      266.1483      -38789.103      79948.538      14.535467     -38872.604      0.0075159684   0.00601502     0.01840405   
    269000   422.41146     -1117.8914     -39056.83       272.95023     -38783.879      79915.54       14.541469     -38839.639      0.0071203378   0.0065821611   0.021127591  
    270000   419.27961      426.07567     -39049.999      270.92652     -38779.072      79911.612      14.542184     -38757.821      0.0073434569   0.0057108368   0.018545756  
    271000   424.92633      400.94675     -39054.822      274.57527     -38780.247      79900.456      14.544214     -38760.252      0.0071360227   0.005726927    0.020047717  
    272000   429.17651     -42.098615     -39048.399      277.32162     -38771.077      79945.259      14.536064     -38773.178      0.0074017068   0.0061680056   0.02306728   
    273000   428.04058     -1411.1146     -39054.016      276.58761     -38777.429      79949.24       14.53534      -38847.844      0.0071053319   0.0056812529   0.026086905  
    274000   436.4089       819.19109     -39049.833      281.99498     -38767.838      79909.026      14.542655     -38726.981      0.0067655782   0.0058540767   0.023478284  
    275000   432.12436      1355.0006     -39045.127      279.22643     -38765.9        79898.163      14.544632     -38698.328      0.0069189139   0.0063927883   0.021040911  
    276000   427.53282     -643.44436     -39050.521      276.25951     -38774.261      79947.011      14.535745     -38806.368      0.0069569008   0.0064542661   0.021730595  
    277000   435.1927      -275.96161     -39043.423      281.2091      -38762.214      79968.999      14.531748     -38775.988      0.0060168181   0.0068345842   0.026218442  
    278000   437.10949     -2171.6904     -39042.166      282.44768     -38759.718      80024.21       14.521723     -38868.188      0.0068767248   0.0071237686   0.026127415  
    279000   434.63631     -305.42436     -39047.125      280.84958     -38766.275      79933.338      14.538231     -38781.513      0.0066244049   0.0068407895   0.022877941  
    280000   447.95707      175.89437     -39042.635      289.45708     -38753.178      79951.429      14.534942     -38744.401      0.0065558893   0.0065268189   0.024849141  
    281000   441.17571     -895.98259     -39038.003      285.07515     -38752.928      79999.047      14.52629      -38797.665      0.0071176406   0.0061761396   0.028461442  
    282000   440.15         181.48627     -39040.558      284.41237     -38756.146      79960.796      14.533239     -38747.089      0.0068180709   0.0068989315   0.023733178  
    283000   455.18453     -4322.5018     -39039.192      294.12726     -38745.065      80090.643      14.509677     -38961.141      0.0072223219   0.0074759026   0.030820652  
    284000   437.28647     -998.16142     -39032.094      282.56204     -38749.532      80030.079      14.520658     -38799.391      0.0069253593   0.0067272237   0.028018585  
    285000   449.1149      -16.614236     -39036.436      290.20523     -38746.231      79996.267      14.526795     -38747.061      0.0063410432   0.006851137    0.02519355   
    286000   447.63183      145.48813     -39033.284      289.24691     -38744.037      79996.123      14.526821     -38736.773      0.0076251752   0.0071005437   0.024436905  
    287000   448.63978      1710.4827     -39042.124      289.89822     -38752.226      79913.036      14.541925     -38666.911      0.0069270909   0.00651464     0.020584469  
    288000   455.86194     -1141.0304     -39030.638      294.56498     -38736.073      80035.21       14.519727     -38793.072      0.0070847899   0.0072125765   0.023251526  
    289000   455.26001     -927.21554     -39031.431      294.17603     -38737.254      80018.692      14.522724     -38783.563      0.0072374855   0.007277184    0.025232447  
    290000   453.42485      517.52855     -39033.091      292.9902      -38740.101      79982.337      14.529325     -38714.265      0.0068192576   0.007212671    0.024796869  
    291000   464.61123     -1287.1902     -39027.788      300.21852     -38727.57       80045.89       14.517789     -38791.879      0.0071841349   0.0072336862   0.025952876  
    292000   455.90935      1741.1743     -39030.365      294.59561     -38735.769      79965.464      14.532391     -38648.866      0.0070953132   0.0068446136   0.024854616  
    293000   468.7133       1208.8632     -39029.397      302.86916     -38726.528      79983.166      14.529174     -38666.18       0.0076626134   0.0062533359   0.027370451  
    294000   468.43653     -222.48483     -39029.79       302.69032     -38727.1        80022.495      14.522034     -38738.212      0.0074929127   0.0065855364   0.025605074  
    295000   455.98026      1737.1256     -39023.97       294.64143     -38729.328      79982.433      14.529308     -38642.609      0.0072589243   0.0070329945   0.022308159  
    296000   469.83101      1860.4401     -39025.126      303.59139     -38721.535      79969.615      14.531636     -38628.675      0.0069482523   0.0070239532   0.026429225  
    297000   479.18998      3314.7687     -39020.118      309.63889     -38710.479      79967.718      14.531981     -38545.033      0.0080698768   0.0067389034   0.022446096  
    298000   477.13129      1969.5391     -39026.948      308.30862     -38718.639      79997.113      14.526641     -38620.299      0.0071855926   0.0072467891   0.021154653  
    299000   489.73185     -948.90062     -39021.272      316.45074     -38704.822      80080.349      14.511542     -38752.25       0.0078156089   0.0080058534   0.023060339  
    300000   472.06414      8.3164535     -39018.983      305.03438     -38713.949      80049.866      14.517068     -38713.533      0.0084135333   0.0073899271   0.023133763  
    301000   471.16179     -2385.6583     -39014.914      304.4513      -38710.463      80134.216      14.501787     -38829.783      0.0088091737   0.008295076    0.019209577  
    302000   482.2119       2072.4627     -39020.728      311.59157     -38709.136      80006          14.525028     -38605.646      0.007028521    0.0084421443   0.018399657  
    303000   479.14529      871.66228     -39013.951      309.61001     -38704.341      80064.916      14.51434      -38660.782      0.0075914336   0.0088249939   0.022383059  
    304000   480.83398     -282.8013      -39017.353      310.70119     -38706.652      80077.92       14.511982     -38720.787      0.0074452964   0.0082655948   0.022170956  
    305000   484.49756     -1131.1132     -39014.18       313.0685      -38701.112      80093.692      14.509125     -38757.657      0.0078963693   0.0089038547   0.022402897  
    306000   479.63819     -1384.9217     -39005.977      309.92851     -38696.048      80122.097      14.503981     -38765.306      0.0091223128   0.0077358083   0.027619217  
    307000   485.46007     -1459.3091     -39009.565      313.69044     -38695.874      80122.689      14.503874     -38768.853      0.0086420425   0.007356201    0.02631876   
    308000   477.32331      175.02832     -39020.474      308.4327      -38712.041      80055.266      14.516089     -38703.296      0.0084335035   0.0071193251   0.023781877  
    309000   498.01307      907.63459     -39012.493      321.80183     -38690.692      80069.5        14.513508     -38645.332      0.0089774379   0.0069422403   0.026260633  
    310000   484.12757      2763.1639     -39019.757      312.82942     -38706.927      79984.049      14.529014     -38568.984      0.0077199036   0.0062735858   0.025829978  
    311000   488.47874      3507.5957     -39002.447      315.64102     -38686.806      80039.465      14.518955     -38511.578      0.0084339253   0.0071104161   0.025370064  
    312000   490.15351     -928.78535     -39006.574      316.72321     -38689.851      80143.869      14.500041     -38736.311      0.0082874628   0.0087223719   0.030186913  
    313000   493.67051      416.28926     -39002.26       318.9958      -38683.264      80113.285      14.505576     -38662.448      0.0079932931   0.0078246276   0.030433844  
    314000   501.28805      40.805635     -39003.251      323.91803     -38679.333      80109.357      14.506288     -38677.293      0.0076119295   0.0078100537   0.028980849  
    315000   495.71687     -1993.4833     -39007.98       320.3181      -38687.662      80164.78       14.496258     -38787.406      0.008125865    0.0088779995   0.028549828  
    316000   500.98363      906.79361     -39001.848      323.72133     -38678.126      80102.296      14.507566     -38632.79       0.0075666248   0.0085386966   0.034522141  
    317000   504.2108       1617.3206     -38996.046      325.80663     -38670.239      80109.36       14.506287     -38589.372      0.0076439599   0.0078220262   0.03274039   
    318000   499.07949      4180.6013     -39005.708      322.49092     -38683.217      79993.516      14.527295     -38474.488      0.0070851449   0.007004475    0.029474407  
    319000   516.05949      890.29822     -39000.825      333.46292     -38667.362      80128.913      14.502747     -38622.836      0.0087996868   0.00806472     0.032221949  
    320000   498.30377     -1046.8937     -38993.974      321.98968     -38671.985      80182.145      14.493119     -38724.377      0.0088909328   0.0079411477   0.032783627  
    321000   509.01635      4021.5132     -38998.92       328.91184     -38670.008      80024.807      14.521614     -38469.143      0.0078268851   0.0074534837   0.024752918  
    322000   514.55413      1374.5776     -38996.418      332.49019     -38663.927      80121.683      14.504056     -38595.188      0.0076456509   0.0094618673   0.033596164  
    323000   519.04507      1907.3542     -38991.178      335.39212     -38655.786      80126.685      14.503151     -38560.397      0.0076254416   0.0094725593   0.028761432  
    324000   512.49251     -743.71726     -38988.946      331.15804     -38657.788      80188.705      14.491933     -38695.011      0.0083550456   0.0083689224   0.027679734  
    325000   507.49169     -3561.1679     -38992.986      327.92665     -38665.06       80250.675      14.480743     -38843.433      0.0089988457   0.0098384611   0.027757184  
    326000   518.1429      -1415.4988     -38989.374      334.80916     -38654.565      80216.677      14.48688      -38725.435      0.0088407209   0.0095300103   0.030098827  
    327000   529.0661      -522.33399     -38986.047      341.86742     -38644.179      80192.746      14.491203     -38670.323      0.0082908163   0.0090315492   0.029429524  
    328000   534.45505      998.16547     -38990.967      345.3496      -38645.617      80135.174      14.501614     -38595.693      0.0085098319   0.0081342835   0.030944345  
    329000   515.85683      17.580339     -38990.268      333.33197     -38656.936      80154.942      14.498038     -38656.057      0.0078924902   0.0087292136   0.030518603  
    330000   524.71382     -1651.9181     -38982.693      339.0551      -38643.638      80236.338      14.48333      -38726.365      0.0087450293   0.0085222033   0.031032863  
    331000   528.11774      1274.9715     -38984.957      341.25462     -38643.702      80160.495      14.497033     -38579.913      0.009346779    0.0084376343   0.028657128  
    332000   533.81139      1796.7239     -38984.389      344.93369     -38639.455      80156.184      14.497813     -38549.566      0.0081785828   0.0080447016   0.034855066  
    333000   540.97116      1486.1753     -38980.54       349.56012     -38630.98       80153.141      14.498363     -38556.63       0.0086781155   0.0072353294   0.032989344  
    334000   533.0235       2294.7643     -38981.012      344.42458     -38636.588      80125.891      14.503294     -38521.825      0.0089660899   0.0080133986   0.031031743  
    335000   543.89255     -672.47467     -38975.921      351.44785     -38624.473      80262.4        14.478627     -38658.162      0.0091852042   0.009057024    0.036042328  
    336000   538.97322     -613.63758     -38982.603      348.26912     -38634.334      80213.205      14.487507     -38665.056      0.0090674419   0.0080478709   0.028053029  
    337000   545.64734      942.73568     -38973.915      352.58174     -38621.333      80219.721      14.48633      -38574.131      0.010336636    0.0091301531   0.024470044  
    338000   536.80842     -1684.4508     -38980.987      346.87028     -38634.117      80265.078      14.478144     -38718.504      0.0091610933   0.0098164745   0.029149188  
    339000   541.85358      117.38999     -38973.128      350.13032     -38622.998      80231.806      14.484148     -38617.119      0.0088512408   0.0098544675   0.026739843  
    340000   540.49601     -1754.5655     -38980.624      349.2531      -38631.371      80254.044      14.480135     -38719.259      0.0082493904   0.010742781    0.025899342  
    341000   545.94332     -1883.5486     -38976.166      352.77299     -38623.393      80280.217      14.475414     -38717.772      0.0092814588   0.0099389355   0.032778313  
    342000   553.87008     -1057.2083     -38967.216      357.89504     -38609.321      80294.351      14.472866     -38662.304      0.0085252635   0.010369437    0.031927812  
    343000   540.07828     -559.83783     -38967.267      348.98317     -38618.284      80281.755      14.475137     -38646.336      0.0093831057   0.0097587302   0.029404073  
    344000   544.51477     -1390.6005     -38965.715      351.8499      -38613.865      80304.342      14.471065     -38683.565      0.009548998    0.0097340135   0.034435663  
    345000   546.93618     -1865.3326     -38967.794      353.41455     -38614.379      80299.594      14.471921     -38707.868      0.0090648477   0.0098795316   0.03573626   
    346000   562.22657     -4435.8883     -38970.79       363.29477     -38607.495      80389.014      14.455823     -38830.065      0.0099814116   0.010264756    0.036903033  
    347000   556.29034      2298.1395     -38970.05       359.45894     -38610.591      80196.771      14.490476     -38495.558      0.0079984749   0.0092165288   0.035380065  
    348000   561.37643     -1481.2527     -38969.217      362.74543     -38606.472      80295.115      14.472728     -38680.707      0.0086735325   0.0097407936   0.035898509  
    349000   551.90599     -1350.772      -38954.828      356.6259      -38598.202      80373.235      14.458661     -38665.964      0.0094906545   0.010547604    0.037784332  
    350000   551.17781     -883.22005     -38965.861      356.15537     -38609.705      80295.428      14.472672     -38653.969      0.0089860735   0.010238565    0.034767638  
    351000   560.96065      954.86891     -38964.157      362.47677     -38601.68       80226.971      14.485021     -38553.867      0.0083659132   0.0093208596   0.035509214  
    352000   566.63667     -274.68348     -38955.431      366.14444     -38589.286      80323.275      14.467654     -38603.057      0.010555331    0.011311096    0.023340799  
    353000   571.14452     -1386.7952     -38960.142      369.05729     -38591.085      80347.045      14.463374     -38660.631      0.011306899    0.010109336    0.027890804  
    354000   549.66183     -815.30611     -38955.386      355.17579     -38600.211      80318.439      14.468525     -38641.083      0.010436515    0.011022713    0.028346225  
    355000   573.07393      1956.7816     -38953.082      370.30402     -38582.778      80281.434      14.475194     -38484.729      0.010212009    0.0094449078   0.02988932   
    356000   579.50369     -362.11862     -38950.047      374.45875     -38575.588      80345.843      14.46359      -38593.747      0.0094483167   0.010377915    0.034070511  
    357000   566.88951      69.165569     -38955.277      366.30782     -38588.969      80310.403      14.469973     -38585.502      0.00979086     0.009854714    0.038780799  
    358000   572.74623     -336.24814     -38949.149      370.09227     -38579.057      80325.015      14.467341     -38595.914      0.0095793982   0.0096065171   0.040758261  
    359000   574.45759     -2265.438      -38953.66       371.1981      -38582.462      80393.752      14.454971     -38696.137      0.009604227    0.0097410713   0.042080066  
    360000   588.17688      3868.0113     -38951.621      380.06312     -38571.558      80212.677      14.487602     -38377.907      0.0090173756   0.0096092185   0.032344235  
    361000   580.36745      801.85566     -38956.661      375.01688     -38581.644      80288.643      14.473895     -38541.462      0.0088803059   0.01022133     0.035034314  
    362000   592.06698      1362.2734     -38949.624      382.57679     -38567.048      80312.76       14.469548     -38498.761      0.0091967369   0.011225419    0.029566043  
    363000   569.01374      2108.8129     -38942.334      367.68044     -38574.654      80296.47       14.472484     -38468.966      0.010453541    0.0090829545   0.031315762  
    364000   583.64955     -2249.6859     -38940.124      377.13769     -38562.987      80431.631      14.448164     -38675.924      0.01197121     0.01086895     0.033180129  
    365000   583.67183     -634.97762     -38951.051      377.15208     -38573.899      80356.455      14.46168      -38605.746      0.010387043    0.010599853    0.032119754  
    366000   584.14187      1252.2591     -38944.559      377.45581     -38567.103      80316.748      14.46883      -38504.328      0.010023048    0.0093135935   0.039733125  
    367000   588.58335      253.31315     -38936.661      380.32576     -38556.335      80368.156      14.459575     -38543.629      0.01038321     0.0097622758   0.04214775   
    368000   588.60096     -193.40498     -38953.11       380.33714     -38572.773      80326.127      14.467141     -38582.469      0.009672444    0.010434358    0.034834853  
    369000   596.8444      -724.3138      -38936.564      385.66382     -38550.9        80407.608      14.45248      -38587.251      0.0095741284   0.011342547    0.037568445  
    370000   600.5167      -168.15094     -38945.472      388.03675     -38557.435      80358.848      14.46125      -38565.869      0.0097568759   0.0096932982   0.037757766  
    371000   595.21668     -2101.7649     -38936.19       384.61203     -38551.578      80446.027      14.445578     -38657.108      0.01220019     0.010013481    0.036309236  
    372000   606.31255     -1359.7335     -38938.188      391.78187     -38546.406      80410.536      14.451954     -38614.649      0.012093231    0.0094867534   0.042031774  
    373000   605.51514     -654.9311      -38937.327      391.26661     -38546.061      80398.31       14.454152     -38578.925      0.010746912    0.010648119    0.037357944  
    374000   612.643        2562.8532     -38939.348      395.87242     -38543.476      80291.953      14.473298     -38415.04       0.010261551    0.010881386    0.025926884  
    375000   602.39112     -26.818101     -38938.412      389.24795     -38549.164      80392.152      14.455259     -38550.51       0.0094280919   0.011462127    0.040384108  
    376000   607.21649     -1685.1769     -38931.847      392.36597     -38539.481      80458.219      14.443389     -38624.108      0.011085038    0.011360647    0.038266541  
    377000   606.71994      210.33561     -38932.012      392.04511     -38539.967      80394.198      14.454891     -38529.413      0.011766328    0.010306086    0.035524466  
    378000   614.3858       902.85302     -38934.162      396.99857     -38537.163      80390.22       14.455606     -38491.862      0.012763568    0.0094511829   0.032330032  
    379000   609.35523      2682.7052     -38930.26       393.74796     -38536.512      80338.387      14.464933     -38401.993      0.011559206    0.010687877    0.031637139  
    380000   615.93869      1070.4127     -38936.035      398.00201     -38538.033      80372.759      14.458747     -38484.336      0.010632914    0.011263809    0.031621068  
    381000   622.69351      3508.3777     -38931.999      402.36678     -38529.632      80310.293      14.469993     -38353.772      0.0086990221   0.011888237    0.031958311  
    382000   616.26268      175.36322     -38912.437      398.21136     -38514.226      80464.817      14.442205     -38505.418      0.010809091    0.011864396    0.04033065   
    383000   610.60098      5115.4036     -38920.29       394.55293     -38525.737      80292.324      14.473231     -38269.381      0.010798327    0.0099968976   0.038803339  
    384000   637.71225      578.25366     -38917.982      412.07146     -38505.91       80447.322      14.445346     -38476.875      0.011228408    0.010222452    0.043150368  
    385000   615.04847     -743.15183     -38925.816      397.42677     -38528.389      80469.904      14.441292     -38565.714      0.01084215     0.0095424638   0.050890041  
    386000   624.59961      254.52602     -38922.389      403.59844     -38518.79       80440.119      14.446639     -38506.011      0.012563178    0.010037422    0.039481047  
    387000   637.60528      131.14637     -38920.007      412.00234     -38508.005      80465.56       14.442072     -38501.418      0.011806411    0.011812299    0.036228171  
    388000   611.20848     -3952.9287     -38923.619      394.94548     -38528.673      80534.763      14.429662     -38727.37       0.011514533    0.012358383    0.042252184  
    389000   635.56567     -2501.0036     -38918.742      410.6844      -38508.058      80528.932      14.430706     -38633.763      0.012360406    0.010167383    0.044531358  
    390000   632.2748       486.84828     -38929.693      408.55793     -38521.135      80394.76       14.45479      -38496.706      0.012196783    0.0094892354   0.036343361  
    391000   646.14921      1027.0245     -38919.195      417.52318     -38501.672      80426.812      14.449029     -38450.117      0.010423127    0.012239707    0.037074607  
    392000   637.06547      1213.7965     -38915.924      411.65353     -38504.27       80451.465      14.444602     -38443.321      0.010746048    0.012359014    0.036082785  
    393000   641.2321      -1783.2305     -38912.053      414.34589     -38497.707      80523.2        14.431734     -38587.33       0.011748973    0.012823799    0.034585908  
    394000   638.71059     -1291.587      -38908.772      412.71656     -38496.056      80527.555      14.430953     -38560.972      0.011657224    0.01170606     0.044984666  
    395000   649.08582     -257.98906     -38917.032      419.42074     -38497.611      80472.412      14.440842     -38510.569      0.012888955    0.0099245438   0.044770381  
    396000   642.90164     -1982.731      -38909.885      415.42469     -38494.46       80530.898      14.430354     -38594.119      0.012167962    0.010514829    0.045353349  
    397000   656.08162     -2038.7604     -38914.321      423.94122     -38490.38       80538.072      14.429069     -38592.864      0.010092904    0.013552856    0.047267688  
    398000   643.30103      2702.2452     -38915.64       415.68277     -38499.957      80379.308      14.457569     -38364.388      0.010416243    0.010951246    0.038707043  
    399000   648.80745      74.975722     -38907.396      419.24086     -38488.155      80493.225      14.437108     -38484.389      0.012084919    0.012932456    0.039654508  
    400000   646.70079     -2417.2754     -38910.191      417.87959     -38492.312      80545.779      14.427688     -38613.835      0.012616482    0.011852409    0.039036409  
    401000   655.18035      1853.6834     -38901.798      423.35885     -38478.439      80449.962      14.444872     -38385.36       0.011719584    0.010773219    0.038120333  
    402000   649.37811      1134.2464     -38909.936      419.6096      -38490.326      80450.666      14.444745     -38433.372      0.011601952    0.011086657    0.044748724  
    403000   650.36777      574.30113     -38894.135      420.2491      -38473.886      80526.276      14.431182     -38445.021      0.010985722    0.012629299    0.047533484  
    404000   659.90959     -200.94498     -38900.137      426.41474     -38473.722      80519.507      14.432396     -38483.821      0.012356781    0.010554859    0.043639873  
    405000   666.49213      553.28398     -38900.691      430.66819     -38470.023      80505.17       14.434966     -38442.222      0.01331562     0.0098874134   0.039916429  
    406000   669.99492      564.47866     -38890.992      432.9316      -38458.061      80550.617      14.426821     -38429.681      0.013032067    0.01339574     0.036347466  
    407000   651.66039      4784.9574     -38892.911      421.08435     -38471.827      80421.473      14.449989     -38231.645      0.011460165    0.011301957    0.041207001  
    408000   674.03265     -2495.7819     -38903.641      435.54067     -38468.1        80587.103      14.42029      -38593.634      0.011393046    0.010314061    0.059091348  
    409000   664.86325      1238.4388     -38900.578      429.61566     -38470.962      80495.396      14.436719     -38408.742      0.011459041    0.010618637    0.048063528  
    410000   658.3972       1074.7222     -38896.486      425.43749     -38471.048      80498.507      14.436161     -38417.051      0.010520315    0.012393133    0.044881207  
    411000   664.4545       1193.8439     -38884.553      429.35154     -38455.201      80548.962      14.427118     -38395.181      0.01295483     0.012957173    0.036172096  
    412000   679.89674      1824.9442     -38897.203      439.32987     -38457.873      80481.921      14.439136     -38366.201      0.012425032    0.010400414    0.039516825  
    413000   679.88125      3061.3683     -38886.825      439.31986     -38447.505      80490.448      14.437606     -38293.708      0.011894766    0.011407145    0.038371772  
    414000   673.75025     -188.07581     -38895.025      435.35819     -38459.667      80547.699      14.427344     -38469.122      0.01133057     0.013215193    0.03819109   
    415000   680.20866      932.46179     -38892.938      439.53142     -38453.407      80527.085      14.431037     -38406.54       0.0098376911   0.013292673    0.045557196  
    416000   672.65164      294.89113     -38884.587      434.64829     -38449.939      80572.57       14.422891     -38435.109      0.011582241    0.012774223    0.044927433  
    417000   681.01523      1189.6593     -38887.981      440.05261     -38447.928      80540.17       14.428693     -38388.125      0.01207295     0.011227225    0.040574301  
    418000   687.62139     -99.174315     -38876.654      444.32132     -38432.332      80603.348      14.417383     -38437.322      0.015719962    0.011888481    0.039006456  
    419000   671.72188      735.78878     -38881.636      434.04751     -38447.589      80566.092      14.42405      -38410.59       0.013052911    0.013320334    0.041636835  
    420000   691.01006     -135.74897     -38883.038      446.51098     -38436.527      80580.323      14.421503     -38443.355      0.010907133    0.01219933     0.049901807  
    421000   684.96185      599.65054     -38878.734      442.6028      -38436.131      80565.774      14.424107     -38405.977      0.0127301      0.011096196    0.051824477  
    422000   684.89993      2608.0658     -38882.468      442.56279     -38439.905      80520.611      14.432198     -38308.831      0.012905241    0.013200193    0.034839989  
[...]
  11096000   302.63264      454.51183     -39129.129      195.55257     -38933.576      79562.946      14.605912     -38911.006      0.0051294023   0.0093553939   0.013067883  
  11097000   302.90768      1167.7016     -39132.371      195.7303      -38936.641      79540.804      14.609978     -38878.67       0.0055636504   0.0091460219   0.010122121  
  11098000   298.33464      897.68782     -39133.375      192.77533     -38940.6        79521.244      14.613571     -38896.044      0.0053575832   0.0093271822   0.0099065065 
  11099000   300.93103     -1507.7367     -39132.264      194.45304     -38937.811      79602.209      14.598708     -39012.721      0.0054643796   0.0091782622   0.013994303  
  11100000   296.85911     -2420.1895     -39132.894      191.82189     -38941.072      79639.066      14.591951     -39061.372      0.0051447512   0.0091029701   0.018382733  
  11101000   295.92842     -1256.0698     -39131.219      191.2205      -38939.999      79595.675      14.599906     -39002.4        0.0054345793   0.0092103049   0.014981694  
  11102000   298.4223      -1530.1909     -39132.294      192.83197     -38939.462      79598.291      14.599426     -39015.484      0.0057127599   0.009479534    0.012766066  
  11103000   306.43053      1188.6619     -39129.125      198.00667     -38931.118      79543.889      14.609411     -38872.104      0.0055424674   0.0092170186   0.0096314111 
  11104000   294.66784     -204.48741     -39130.018      190.40595     -38939.612      79570.09       14.604601     -38949.768      0.0048129141   0.0097318986   0.012762729  
  11105000   301.97656      107.73278     -39132.686      195.12864     -38937.558      79560.41       14.606377     -38932.208      0.0047815365   0.0094997517   0.016023749  
  11106000   296.13137     -245.73579     -39130.549      191.35164     -38939.197      79573.598      14.603957     -38951.402      0.0054405241   0.0092454575   0.014406157  
  11107000   296.68582     -2653.123      -39129.522      191.70991     -38937.812      79641.083      14.591582     -39069.694      0.0058764945   0.0091807321   0.014830423  
  11108000   298.71222      1341.3766     -39135.437      193.01931     -38942.418      79510.335      14.615576     -38875.85       0.005332965    0.0092037046   0.012025909  
  11109000   301.93976     -910.18524     -39132.385      195.10486     -38937.28       79589.37       14.601063     -38982.494      0.0057690791   0.0095516109   0.01240431   
  11110000   301.47114      1782.6659     -39131.116      194.80205     -38936.314      79515.129      14.614695     -38847.841      0.0053825849   0.0096521711   0.011656499  
  11111000   302.46214     -466.01202     -39136.421      195.4424      -38940.978      79562.319      14.606027     -38964.12       0.0048157324   0.0094252389   0.013859407  
  11112000   304.69436     -630.65996     -39130.461      196.8848      -38933.576      79589.715      14.600999     -38964.905      0.0051677568   0.0093541863   0.014974329  
  11113000   300.69515      732.70478     -39133.695      194.30062     -38939.395      79527.844      14.612359     -38903.025      0.0062216436   0.0089011368   0.010925729  
  11114000   298.58936      1434.6697     -39129.811      192.93993     -38936.871      79539.725      14.610176     -38865.647      0.0057750108   0.0089989055   0.01090695   
  11115000   297.11502      1009.6189     -39134.248      191.98724     -38942.261      79526.481      14.612609     -38892.147      0.0044879306   0.0099428449   0.013093347  
  11116000   305.50006      60.324905     -39132.335      197.40542     -38934.93       79565.141      14.605509     -38931.934      0.0047505214   0.010238378    0.012641141  
  11117000   297.52537      1173.0768     -39132.607      192.2524      -38940.355      79524.007      14.613064     -38882.129      0.0051013298   0.0089369459   0.013072787  
  11118000   298.91056     -2412.5549     -39132.523      193.14747     -38939.376      79621.986      14.595082     -39059.27       0.0054077223   0.0095472837   0.01541326   
  11119000   300.51347      3.0134081     -39129.942      194.18323     -38935.759      79572.947      14.604076     -38935.609      0.0051007107   0.0097272934   0.014897571  
  11120000   302.68636     -513.84965     -39130.301      195.58729     -38934.714      79577.255      14.603285     -38960.236      0.005526943    0.0097838936   0.011070044  
  11121000   295.99707     -2539.9874     -39132.759      191.26486     -38941.495      79631.808      14.593281     -39067.738      0.0056950644   0.0096440605   0.011416191  
  11122000   299.35275     -1058.6037     -39133.249      193.43321     -38939.816      79574.851      14.603727     -38992.393      0.0051867698   0.0094807035   0.014014388  
  11123000   296.01486     -981.1784      -39132.857      191.27636     -38941.581      79572.397      14.604177     -38990.311      0.0049990179   0.0098187701   0.012414607  
  11124000   305.0162      -1459.4524     -39126.481      197.09277     -38929.389      79632.296      14.593192     -39001.927      0.0061499562   0.0095522621   0.012954062  
  11125000   295.95921      1335.0825     -39133.141      191.2404      -38941.9        79531.144      14.611752     -38875.628      0.0058487517   0.009086086    0.012124619  
  11126000   297.04556     -394.08745     -39130.795      191.94237     -38938.852      79574.968      14.603705     -38958.425      0.0053451088   0.009826774    0.012340569  
  11127000   295.59584      488.3499      -39131.777      191.00559     -38940.772      79545.539      14.609108     -38916.526      0.0047405894   0.010173818    0.010232931  
  11128000   297.93589      95.505226     -39131.767      192.51767     -38939.25       79563.571      14.605797     -38934.507      0.0051491877   0.0095025049   0.013049448  
  11129000   294.0888      -2160.8991     -39133.255      190.03179     -38943.223      79608.786      14.597501     -39050.593      0.005567575    0.0094788552   0.015031421  
  11130000   300.52871      2193.3296     -39131.303      194.19308     -38937.109      79522.717      14.613301     -38828.245      0.0049110957   0.0095148493   0.013288366  
  11131000   300.07737     -183.79341     -39132.179      193.90143     -38938.277      79568.296      14.60493      -38947.405      0.0050450099   0.0090307418   0.014938688  
  11132000   297.36213     -195.56313     -39134.874      192.14692     -38942.728      79550.204      14.608251     -38952.437      0.0056103223   0.0089886709   0.01233881   
  11133000   299.65754      1704.5564     -39129.16       193.63015     -38935.53       79529.498      14.612055     -38850.918      0.0055239783   0.0094215155   0.011433782  
  11134000   296.37403     -1072.3034     -39131.875      191.50844     -38940.367      79591.271      14.600714     -38993.635      0.0053655855   0.0094813541   0.012806689  
  11135000   293.80059     -1008.3678     -39128.493      189.84556     -38938.647      79600.929      14.598942     -38988.746      0.0049704969   0.0093156411   0.016464273  
  11136000   297.11231      935.66486     -39132.297      191.98549     -38940.312      79530.338      14.6119       -38893.866      0.0049951154   0.0094313518   0.0139151    
  11137000   300.70041     -703.18905     -39134.842      194.30402     -38940.538      79568.92       14.604815     -38975.46       0.0055880547   0.0095322542   0.011956098  
  11138000   303.48759     -202.75371     -39129.395      196.10502     -38933.29       79580.364      14.602715     -38943.361      0.0057312159   0.008846721    0.013478296  
  11139000   297.7689       895.25082     -39133.322      192.40977     -38940.913      79533.063      14.6114       -38896.472      0.0059281502   0.0082865056   0.013955662  
  11140000   304.17499      69.413763     -39130.899      196.5492      -38934.35       79559.292      14.606583     -38930.903      0.0054928836   0.0091263143   0.014500537  
  11141000   299.45712     -812.61985     -39133.535      193.50064     -38940.034      79580.407      14.602707     -38980.397      0.0051786687   0.0094259108   0.013289843  
  11142000   303.24296     -891.51119     -39130.303      195.94695     -38934.356      79601.776      14.598787     -38978.65       0.0052876544   0.0099686268   0.012847153  
  11143000   299.24739     -583.37917     -39131.43       193.36512     -38938.065      79582.225      14.602373     -38967.043      0.0052328026   0.0098867189   0.011561743  
  11144000   299.62293     -131.86448     -39131.785      193.60779     -38938.177      79571.859      14.604276     -38944.726      0.005562664    0.0091419523   0.013656818  
  11145000   294.16742      640.72844     -39135.759      190.0826      -38945.676      79538.574      14.610387     -38913.868      0.005473448    0.0083332689   0.016199152  
  11146000   302.79455      168.96755     -39129.493      195.6572      -38933.836      79570.684      14.604491     -38925.444      0.005570506    0.0095767837   0.013575773  
  11147000   296.98986      806.60247     -39132.333      191.90638     -38940.426      79524.533      14.612967     -38900.39       0.0049353705   0.0096284895   0.01166758   
  11148000   306.76039      22.437759     -39132.688      198.21981     -38934.469      79560.664      14.606331     -38933.354      0.005208644    0.0093927232   0.01216043   
  11149000   298.63869     -416.83781     -39132.556      192.9718      -38939.584      79585.195      14.601829     -38960.29       0.0053997742   0.0099865471   0.012125105  
  11150000   295.7367      -309.3762      -39133.13       191.09662     -38942.034      79558.628      14.606705     -38957.396      0.0048965412   0.0096731077   0.013331154  
  11151000   299.93855      1058.0898     -39132.446      193.81173     -38938.634      79540.685      14.61         -38886.105      0.0049638381   0.0095244936   0.013706879  
  11152000   302.12791      158.9106      -39130.405      195.22643     -38935.178      79560.564      14.606349     -38927.287      0.0051138477   0.0089496227   0.014841507  
  11153000   303.74038     -1461.1836     -39132.916      196.26837     -38936.648      79597.469      14.599577     -39009.241      0.0060652456   0.0090652589   0.012612537  
  11154000   303.80787     -1755.7466     -39136.211      196.31198     -38939.899      79586.495      14.60159      -39027.114      0.0053216343   0.0097796188   0.012209418  
  11155000   297.19391     -1788.1158     -39131.013      192.03822     -38938.974      79618.457      14.595728     -39027.833      0.0050904508   0.0098836517   0.014143051  
  11156000   301.11321     -819.35038     -39131.208      194.57076     -38936.638      79589.141      14.601105     -38977.339      0.0051806126   0.009260045    0.015514645  
  11157000   295.33867      1210.9971     -39129.286      190.83942     -38938.446      79546.939      14.608851     -38878.321      0.0057658549   0.0094094277   0.010981953  
  11158000   296.43219      484.98001     -39130.137      191.54602     -38938.591      79555.211      14.607332     -38914.509      0.0058734556   0.0094153205   0.009770029  
  11159000   297.69332      617.66581     -39135.277      192.36093     -38942.916      79536.874      14.6107       -38912.253      0.0049515141   0.0093978059   0.011757269  
  11160000   301.37872      418.25626     -39130.554      194.74233     -38935.812      79565.041      14.605527     -38915.041      0.0048418222   0.010107647    0.012904043  
  11161000   298.43089     -573.33267     -39132.933      192.83752     -38940.096      79562.125      14.606062     -38968.567      0.0049383637   0.0096670071   0.013724321  
  11162000   299.09836     -225.47223     -39130.362      193.26883     -38937.093      79572.908      14.604083     -38948.292      0.0055328788   0.0089477686   0.014305633  
  11163000   301.49002      1459.9086     -39136.357      194.81425     -38941.543      79506.843      14.616218     -38869.096      0.0049646992   0.0089724998   0.011709861  
  11164000   301.57157      90.146131     -39134.523      194.86694     -38939.656      79547.38       14.60877      -38935.18       0.0052238318   0.0093307568   0.01203219   
  11165000   307.82029     -505.72497     -39136.308      198.90469     -38937.404      79568.009      14.604982     -38962.519      0.0049718057   0.0094317314   0.012948052  
  11166000   302.09453     -644.52574     -39135.656      195.20487     -38940.451      79566.5        14.605259     -38972.459      0.0046019942   0.0092689669   0.016419349  
  11167000   304.40021     -1404.6352     -39133.81       196.69473     -38937.115      79600.293      14.599059     -39006.901      0.0050304864   0.0096210403   0.014294824  
  11168000   307.2659       132.48274     -39132.65       198.54646     -38934.104      79563.675      14.605778     -38927.525      0.0050722083   0.0093473924   0.013702764  
  11169000   301.76194     -26.93375      -39135.538      194.98995     -38940.548      79553.718      14.607606     -38941.886      0.0056036405   0.0087200045   0.012370925  
  11170000   294.97553      2032.3585     -39129.911      190.60477     -38939.306      79514.852      14.614746     -38838.442      0.0052177058   0.0094249489   0.0092509055 
  11171000   299.67773     -407.74781     -39130.33       193.6432      -38936.686      79590.021      14.600943     -38956.942      0.0052117899   0.0099340834   0.012677332  
  11172000   299.31314     -504.18924     -39133.201      193.40761     -38939.793      79572.536      14.604151     -38964.834      0.0048810409   0.0095540646   0.014058628  
  11173000   305.5332      -1258.443      -39133.7        197.42684     -38936.273      79593.747      14.60026      -38998.791      0.005250922    0.0091654515   0.014221202  
  11174000   301.22177     -765.82342     -39133.686      194.64091     -38939.045      79581.971      14.60242      -38977.085      0.0060191209   0.0088036414   0.013365826  
  11175000   304.43887      545.08422     -39128.045      196.71971     -38931.325      79566.457      14.605267     -38904.256      0.0055157452   0.0089970908   0.013862196  
  11176000   303.09925      1860.047      -39134.362      195.85409     -38938.508      79499.514      14.617566     -38846.213      0.004903486    0.0091141842   0.012028734  
  11177000   300.52439      1126.0102     -39131.322      194.19029     -38937.131      79534.911      14.61106      -38881.234      0.00521796     0.0098455357   0.0089065149 
  11178000   297.41177     -221.5712      -39131.74       192.179       -38939.561      79563.31       14.605845     -38950.564      0.0058398799   0.0094748203   0.010228319  
  11179000   306.55539     -870.80718     -39131.68       198.08735     -38933.593      79586.907      14.601515     -38976.849      0.005644111    0.0091186135   0.014370175  
  11180000   297.19701     -1153.7439     -39133.522      192.04022     -38941.481      79588.417      14.601238     -38998.794      0.0050242528   0.0088216041   0.014317329  
  11181000   298.09932      222.94369     -39133.646      192.62327     -38941.022      79557.966      14.606826     -38929.952      0.0049520647   0.009161327    0.013559461  
  11182000   299.49457     -1286.5735     -39135.648      193.52485     -38942.123      79582.127      14.602391     -39006.029      0.0057288702   0.0092890741   0.010230002  
  11183000   299.40768     -668.91769     -39131.863      193.4687      -38938.394      79564.674      14.605595     -38971.613      0.0055438078   0.0094979266   0.0094425024 
  11184000   299.62231     -122.01185     -39138.04       193.60739     -38944.432      79538.069      14.61048      -38950.49       0.0049242634   0.0088504673   0.011945684  
  11185000   305.49168      2082.9934     -39132.118      197.40001     -38934.718      79494.501      14.618487     -38831.367      0.0051973207   0.0087374656   0.012855553  
  11186000   301.87013      2280.1918     -39134.613      195.05987     -38939.554      79498.595      14.617735     -38826.412      0.0050989529   0.0088956043   0.013540401  
  11187000   303.53292      1332.1889     -39132.243      196.13431     -38936.108      79521.54       14.613517     -38869.987      0.0050086258   0.0089874002   0.011039638  
  11188000   297.2704       1724.4945     -39137.085      192.08765     -38944.998      79489.718      14.619367     -38859.439      0.0051649075   0.0095146532   0.0085888094 
  11189000   295.62124      1569.885      -39128.826      191.02201     -38937.804      79532.182      14.611562     -38859.875      0.0055999803   0.0092257741   0.013422523  
  11190000   301.53922     -1870.6499     -39135.107      194.84604     -38940.26       79596.021      14.599843     -39033.194      0.0053418583   0.008967171    0.014412109  
  11191000   300.56868     -1237.0387     -39127.597      194.21891     -38933.379      79601.298      14.598875     -38994.839      0.0052435242   0.0091067417   0.015917687  
  11192000   296.79969      754.92855     -39133.588      191.78349     -38941.805      79537.857      14.610519     -38904.327      0.0054265958   0.0089085661   0.015173405  
  11193000   302.06356     -742.30875     -39131.107      195.18485     -38935.922      79592.602      14.60047      -38972.799      0.0056040415   0.0096225071   0.013129878  
  11194000   296.62879      1121.7122     -39130.655      191.67306     -38938.982      79548.412      14.60858      -38883.289      0.0051320085   0.0098412042   0.0096938641 
  11195000   295.03402      1391.0722     -39133.825      190.64256     -38943.182      79524.5        14.612973     -38874.136      0.0049849765   0.0096670376   0.011556612  
  11196000   298.04758      3415.7233     -39130.597      192.58984     -38938.008      79480.67       14.621031     -38768.561      0.0051398293   0.0089483584   0.015201985  
  11197000   301.93331      833.49688     -39134.708      195.10069     -38939.608      79528.689      14.612203     -38898.235      0.0052116528   0.0086885985   0.014788825  
  11198000   300.17118     -251.26        -39132.036      193.96205     -38938.074      79570.641      14.604499     -38950.552      0.0051461807   0.0090319074   0.014132449  
  11199000   294.13736      241.67133     -39133.772      190.06317     -38943.709      79547.746      14.608703     -38931.71       0.0056763314   0.0091943187   0.011789182  
  11200000   302.40959     -343.79196     -39130.045      195.40845     -38934.637      79584.947      14.601874     -38951.714      0.0053368657   0.0096076758   0.011227289  
Loop time of 481.849 on 40 procs for 1000000 steps with 5000 atoms

Performance: 179.309 ns/day, 0.134 hours/ns, 2075.341 timesteps/s, 10.377 Matom-step/s
92.7% CPU use with 40 MPI tasks x 1 OpenMP threads

MPI task timing breakdown:
Section |  min time  |  avg time  |  max time  |%varavg| %total
---------------------------------------------------------------
Pair    | 283.41     | 295.61     | 308.21     |  32.6 | 61.35
Neigh   | 0          | 0          | 0          |   0.0 |  0.00
Comm    | 114.52     | 122.83     | 133.28     |  43.9 | 25.49
Output  | 0.2715     | 0.34039    | 0.40817    |   6.7 |  0.07
Modify  | 46.535     | 51.092     | 55.609     |  30.5 | 10.60
Other   |            | 11.98      |            |       |  2.49

Nlocal:            125 ave         133 max         112 min
Histogram: 2 0 2 1 6 6 8 6 3 6
Nghost:           1142 ave        1155 max        1134 min
Histogram: 6 3 6 8 6 6 1 2 0 2
Neighs:        6998.45 ave        7552 max        6287 min
Histogram: 1 1 2 4 4 10 9 3 4 2

Total # of neighbors = 279938
Ave neighs/atom = 55.9876
Neighbor list builds = 0
Dangerous builds = 0
	unfix           ffinal


# ----- FINAL OUTPUT -----
	write_data      annealed_W-Mo.data
System init for write_data ...




Total wall time: 1:36:23
