LAMMPS data file via write_data, version 2 Aug 2023, timestep = 7200000, units = metal

5000 atoms
2 atom types

-0.01711398490645344 31.667113988373345 xlo xhi
-0.01711398490645344 31.667113988373345 ylo yhi
-0.04278496235294682 79.1677849623282 zlo zhi

Atom Type Labels

1 W
2 Mo

Masses

1 183.85
2 95.94

Atoms # atomic

223 1 3.158918369384959 3.1735852242384817 3.147596273958055 0 0 0
2 2 1.5276591328791604 1.5822729860893878 1.4899220018358856 0 0 0
23 1 3.1393064545410367 3.1690770992955737 0.04012105962954644 0 0 0
830 1 14.244451549192735 4.759614581389022 14.220045691013913 0 0 0
203 2 3.2176038806746003 -0.01247156837260232 3.105210254136976 0 0 0
225 1 6.28942195803146 3.1522683255434707 3.1701983808870517 0 0 0
4 1 4.740521131552381 1.553736197782305 1.5070247642971224 0 0 0
821 1 0.015893449903970236 3.1859014300900843 12.62078749510002 0 0 0
25 2 6.3594353333266405 3.1472247050931372 0.05596171061775898 0 0 0
6 2 7.966015250920573 1.6409913620886387 1.5505363598359145 0 0 0
227 2 9.4625707112318 3.126699699378602 3.168817457008126 0 0 0
8 2 11.198228171312007 1.6284045711507085 1.5271087429013217 0 0 0
641 1 0.012697518781727979 6.284255075724367 9.371805272207192 0 0 0
229 2 12.672869778950625 3.1534843773267203 3.141496421324689 0 0 0
10 1 14.33699677903535 1.6294758731857812 1.6190411600910128 0 0 0
409 2 12.669427311090285 0.012102135987809959 6.278370976131319 0 0 0
849 1 12.661212685066305 6.34546596837238 12.64924736368627 0 0 0
209 2 12.681529781339089 0.06563547660484452 3.060860037995831 0 0 0
241 2 0.042458582891782726 6.261652395421374 3.196117518180438 0 0 0
846 2 7.873115881111556 7.861675950946204 14.24722703259506 0 0 0
243 1 3.199590346528258 6.2357032450976275 3.103359095969923 0 0 0
22 1 1.5762247787394152 4.715617224310787 1.5585821384754939 0 0 0
842 2 1.5649031609159967 7.892660478318954 14.181238804940346 0 0 0
245 1 6.373879818851028 6.252278773937287 3.117371600195571 0 0 0
24 1 4.780195713835058 4.702711958907893 1.4989000395337635 0 0 0
26 2 7.832541528124396 4.806258154821725 1.487324432689741 0 0 0
650 2 14.30230836901646 7.870403614087488 11.16446086750074 0 0 0
247 1 9.360561750980013 6.296895299401348 3.128739691790434 0 0 0
28 2 10.991190736397137 4.719484739140559 1.5167334887045003 0 0 0
47 2 9.53596421531559 6.307860830740506 0.061219179458716536 0 0 0
249 2 12.667380880568464 6.254178405913578 3.201018953983784 0 0 0
30 1 14.267046624517148 4.891866349614359 1.49063866050409 0 0 0
828 1 11.109200281539996 4.6386221285880165 14.1858166279526 0 0 0
421 2 -0.0015053255102488033 3.1214888264444 6.321429735457179 0 0 0
202 2 1.4755855573334589 1.5712226229614081 4.667722541590323 0 0 0
423 1 3.234040133764099 3.119579348001757 6.356643698058245 0 0 0
448 1 11.088129195770623 7.901548696011659 7.8908048016784615 0 0 0
826 1 7.894753623011744 4.753986835290318 14.209012381161566 0 0 0
204 1 4.690536852805714 1.5477601795875011 4.75928098741816 0 0 0
425 2 6.33286426284214 3.1685031540911424 6.307372962494201 0 0 0
844 1 4.637695183186328 7.832180069710759 14.11797337526989 0 0 0
206 2 7.949142541243618 1.5480463823434432 4.727968017596458 0 0 0
208 1 11.067156972219069 1.582473074192067 4.757867605454198 0 0 0
427 2 9.430198134503332 3.1373665445515577 6.344909687281534 0 0 0
407 1 9.486768235140545 0.06754652650011177 6.324596627719636 0 0 0
210 2 14.223641328108414 1.6797660711526414 4.819572485046097 0 0 0
429 1 12.5651208411945 3.285946141998898 6.255271622120894 0 0 0
411 2 15.734031125795362 0.07696954041013696 6.369222300225728 0 0 0
222 1 1.5225488825844076 4.6805940110414275 4.760138263991202 0 0 0
443 1 3.1560483725097335 6.316323222537138 6.294172043197397 0 0 0
422 2 1.540947525041171 4.696116185086997 7.768643124360186 0 0 0
224 1 4.820405929531493 4.7270917409246636 4.725147773818352 0 0 0
445 2 6.320901636944757 6.227259070055656 6.429951928171016 0 0 0
226 1 7.885591879758473 4.708639237265619 4.760269081482475 0 0 0
228 2 11.045385295134059 4.801379574792711 4.67201187814928 0 0 0
447 1 9.51002945937517 6.271478978880171 6.291682805424433 0 0 0
428 1 11.012569493787657 4.797064756249487 7.866180737923608 0 0 0
230 2 14.299882187802112 4.772635782686673 4.8206923828382156 0 0 0
449 1 12.644696264355867 6.359995694225284 6.327405931997282 0 0 0
451 2 15.734635326673002 6.414504389398968 6.295098343292486 0 0 0
621 2 -0.001998602457151234 3.124817336343937 9.414110795357118 0 0 0
824 2 4.710588166663764 4.660595048557353 14.214661929212193 0 0 0
402 1 1.7082240546767298 1.5024667347300407 7.891343676978693 0 0 0
623 1 3.2411006207054793 3.114123331513469 9.49869022446484 0 0 0
602 1 1.699840368603352 1.5399613172078548 11.091033485494808 0 0 0
601 1 0.059034870318927984 0.09765597528851556 9.392420051970293 0 0 0
404 1 4.8084073865074455 1.5574551730148092 7.8782095043688205 0 0 0
625 1 6.358553754899177 3.1554774559491396 9.409746269759 0 0 0
604 2 4.78880045604744 1.5257019700560568 11.035980658110887 0 0 0
605 1 6.34625998473986 0.007138811672494524 9.460520247415928 0 0 0
1045 2 6.272236499093563 6.302362770580913 15.707823118226353 0 0 0
606 2 7.899234300663038 1.5859336600371274 10.993398861081706 0 0 0
406 1 7.889186598075558 1.5723806804792375 7.9900390827643175 0 0 0
408 1 11.097826600330539 1.5962715364778592 7.8831727556332405 0 0 0
627 1 9.532303815277517 3.1141634470672903 9.446229844762483 0 0 0
608 1 11.117842335545964 1.5695750220080613 11.081912175880976 0 0 0
845 2 6.3292764451104775 6.274059459742796 12.719125096213993 0 0 0
1043 2 3.1603406575053987 6.302725026098677 15.759826519986742 0 0 0
410 1 14.206158986311285 1.5859291833089726 7.8931857991597285 0 0 0
629 2 12.748250794431028 3.109305612369886 9.559690827383703 0 0 0
610 2 14.303151609153481 1.5845724005381736 11.075107758378296 0 0 0
643 2 3.2176449757984464 6.271549664958101 9.474581558791858 0 0 0
622 1 1.5280514339743339 4.735108540350627 10.99451592172778 0 0 0
442 2 1.5500670761134523 7.8908726221105745 7.868083128621328 0 0 0
424 1 4.764380998677185 4.7368249084114655 7.899658673315449 0 0 0
645 1 6.374218320952547 6.283444290984051 9.482927260597881 0 0 0
624 1 4.794182850578155 4.705892449221088 11.020189816930168 0 0 0
426 1 7.907293624827087 4.692202797627398 7.921825692625141 0 0 0
626 2 7.981661432925865 4.767008050459367 10.992811033179672 0 0 0
628 2 11.093540730090147 4.736660881252416 11.054964962894521 0 0 0
647 1 9.506123137677143 6.369034224265881 9.456885040701858 0 0 0
430 1 14.185403437429963 4.772301821042839 7.94432085998033 0 0 0
649 2 12.699611784579753 6.325345764770193 9.488097161476754 0 0 0
630 2 14.242845816232467 4.783993851891187 10.973177792573614 0 0 0
843 2 3.0923567325016754 6.222613762616695 12.565391920480383 0 0 0
823 2 3.178183454443554 3.13998297090043 12.626222536472552 0 0 0
802 2 1.5690066373992642 1.5655621610917583 14.259359211230612 0 0 0
847 2 9.471667157164124 6.366535963134909 12.6280343710285 0 0 0
822 1 1.6007914288981038 4.7541740305653715 14.181548476504668 0 0 0
825 1 6.3070392793266015 3.114510309225417 12.557735995199646 0 0 0
804 1 4.718741947470504 1.511175016855969 14.220094025010601 0 0 0
807 2 9.594957840711688 0.06961438422386719 12.640624296372813 0 0 0
806 2 7.9500658093909875 1.5120892947855542 14.141310012656039 0 0 0
808 1 11.152699332907261 1.5048544591372839 14.25759743967863 0 0 0
827 1 9.564721304253212 3.1454526312016795 12.611892031654262 0 0 0
841 1 0.0495343414353219 6.311714137888271 12.63790178938056 0 0 0
810 1 14.198606127900907 1.480715917229131 14.238043738194115 0 0 0
829 1 12.741415835427608 3.149480301948299 12.64370549726759 0 0 0
44 1 4.68511452284102 7.872839225038701 1.519523544712411 0 0 0
242 2 1.6145217010674295 7.8461694593928355 4.745816418534765 0 0 0
244 1 4.752632276724633 7.854990800054055 4.676323483225093 0 0 0
248 1 10.982959817145693 7.885803675473801 4.737149820437134 0 0 0
644 1 4.740325528989109 7.843006773605654 11.056641082901928 0 0 0
444 1 4.663810562232247 7.89373676045307 7.901429701323903 0 0 0
646 2 7.932513107980406 7.859669709986702 11.04441214921717 0 0 0
648 1 11.10734787707317 7.840865124292102 11.061999803712483 0 0 0
1023 1 3.1337493542555688 3.2258556174114346 15.780213870884563 0 0 0
1005 2 6.346743986172167 0.13699908127092286 15.74009597029844 0 0 0
1025 2 6.370602948559737 3.208794468783043 15.773039441465704 0 0 0
1027 2 9.527184176989895 3.100682015147149 15.728416691653832 0 0 0
1031 2 15.784156663053794 3.0902639386174893 15.703140369716008 0 0 0
1041 2 -0.010225933924139952 6.3859061773898835 15.784635492431828 0 0 0
5 2 6.2858285545443024 0.025241863673521436 -0.02981769659851352 0 0 0
3 1 3.1386170830569053 -0.0008332151146055768 -0.010497235522535675 0 0 0
1223 1 3.0853892442721955 3.129776494785463 18.894296758933255 0 0 0
1002 2 1.6241878548266186 1.5573357647005088 17.383576120500265 0 0 0
2051 1 15.81188767421832 6.332505296830424 31.618574730902825 0 0 0
1203 2 3.1814892083044257 0.011908390327960112 18.975636289342162 0 0 0
1209 2 12.571646567761592 0.0339331619666865 19.026588116671626 0 0 0
1821 1 0.003920084511037203 3.0919162987609368 28.324288217403527 0 0 0
1225 2 6.359525137956309 3.201296928319455 19.00413088256045 0 0 0
1004 2 4.8920860269257656 1.6242138270691144 17.39987842428638 0 0 0
1205 1 6.25612606213553 0.0038240246821013985 18.96439021595983 0 0 0
1006 2 7.924208569169867 1.5169113380495292 17.437820756223818 0 0 0
1848 1 11.11832997804413 7.858838294723536 30.100832477065335 0 0 0
1846 1 7.868195846032925 7.8340351356343945 30.076147990568874 0 0 0
1227 2 9.489007350393443 3.1153878217940005 18.99035709954879 0 0 0
1008 1 11.139291166569594 1.4820012391339803 17.33884653810013 0 0 0
1621 2 0.017499199738075788 3.098501304712442 25.264964158773996 0 0 0
1444 2 4.766257757413915 7.852554424472925 23.673428148793594 0 0 0
1441 2 -0.01445880404300226 6.318230272063654 22.06862297251165 0 0 0
1229 2 12.593978395899674 3.173253140982958 19.043891593261705 0 0 0
1010 2 14.248260311779463 1.5214550827635147 17.522495396634135 0 0 0
1646 2 7.9178396645621625 7.808322820216868 26.81230430624102 0 0 0
1029 2 12.60001546566914 3.1281893889227352 15.910802960086794 0 0 0
1243 1 3.0979146429448723 6.376425439394065 18.992374264289797 0 0 0
1022 2 1.6126834151550273 4.824925549502376 17.418304909900886 0 0 0
1850 1 14.291071166055872 7.874462811639564 30.096965762094946 0 0 0
1841 1 0.037464634569452926 6.358193071916682 28.38537429183417 0 0 0
1245 2 6.3782102593517775 6.307378370096619 19.01575866376672 0 0 0
1024 2 4.7189849913264945 4.8330427431253025 17.344633652012654 0 0 0
1044 1 4.722310786415773 7.851230487228891 17.35325932186089 0 0 0
1026 1 7.904318289745565 4.788827049837617 17.36263394219959 0 0 0
1247 2 9.470576608308733 6.254606117291472 18.92651771615531 0 0 0
1028 1 11.041612130612616 4.614406542840387 17.400248114082306 0 0 0
1047 2 9.421882439916224 6.244203570985509 15.807998426380093 0 0 0
1249 2 12.59578831442416 6.31791131395051 19.075905318597727 0 0 0
1030 1 14.26590121561573 4.736350604585559 17.45341568509921 0 0 0
1049 2 12.531970464132609 6.322982844651817 15.887268639913207 0 0 0
1411 2 15.801083139430226 -0.011545231321757728 22.154288290855963 0 0 0
1830 1 14.175351256601568 4.698945008554159 30.07303676451825 0 0 0
1849 2 12.552312422517634 6.1810853498420535 28.512643111109607 0 0 0
1423 2 3.1444596001874463 3.1983111098341706 22.11521487175427 0 0 0
1202 2 1.5526302738388809 1.5391564561556106 20.602200768373603 0 0 0
1402 2 1.5440613856321432 1.5861812862413496 23.661645235699226 0 0 0
1642 2 1.6923121387211326 7.867674535674774 26.850868466034953 0 0 0
1425 1 6.237079546827337 3.165607254675879 22.10238313114263 0 0 0
1204 2 4.772297768694023 1.5235369705225843 20.49473410192092 0 0 0
1405 1 6.326200012615745 0.03128189999130908 22.134067758516267 0 0 0
1206 2 7.961647646780903 1.501871926389257 20.632775573980357 0 0 0
1406 2 7.8760045500890845 1.5555900180691302 23.717737428367034 0 0 0
1404 2 4.770336424217008 1.5425584651227662 23.76647125574765 0 0 0
1427 1 9.481902067163974 3.1397327992509703 22.23930329302343 0 0 0
1208 2 11.059134558753033 1.5711956040180273 20.537230887627324 0 0 0
1429 1 12.727948189908966 3.188041361089151 22.158359800064265 0 0 0
1210 2 14.25176507093192 1.636334160038659 20.521508304712633 0 0 0
1201 1 0.030416464168013135 -0.013028736596058315 18.90630797674147 0 0 0
1443 2 3.231336676212197 6.250313963540624 22.1136922441435 0 0 0
1222 2 1.563688567121544 4.619611179601704 20.487910847037163 0 0 0
1422 2 1.5672242449633784 4.756709964853179 23.640444325633506 0 0 0
1242 1 1.5809760018393044 7.870658843112623 20.55390233301518 0 0 0
1445 2 6.342285655640686 6.241931904322747 22.13706038944502 0 0 0
1224 2 4.696099723510147 4.667920294468614 20.483290302303686 0 0 0
1226 2 7.867641818882213 4.6719996651385225 20.610514281600622 0 0 0
1424 1 4.720277625501598 4.702524107866646 23.756638735404604 0 0 0
1447 1 9.514068638849201 6.286230875364566 22.145873788517914 0 0 0
1228 1 10.988367241578615 4.6586412810216125 20.614249010702434 0 0 0
1428 2 11.03006450350966 4.698166179379979 23.75983560717275 0 0 0
1248 2 11.042349398406863 7.869029620983877 20.66128947500922 0 0 0
1449 2 12.681916388675186 6.332555883264155 22.197666231833583 0 0 0
1230 2 14.221134554280688 4.6962395052313335 20.572166103557617 0 0 0
1430 2 14.19660343873448 4.777421307082501 23.682521125519987 0 0 0
1451 1 15.79195158984057 6.327820676484163 22.1578801245369 0 0 0
1446 2 7.912489529323505 7.893540674174682 23.661241428291728 0 0 0
1623 1 3.1237262310942326 3.172958116532787 25.286209377065205 0 0 0
1602 1 1.5622105666384312 1.4737852094837753 26.832986137837718 0 0 0
1601 1 0.02834425648780696 -0.004795041861323783 25.201294998372372 0 0 0
1605 1 6.39003659384149 0.00522053750502512 25.254957948649537 0 0 0
1625 2 6.28765181296077 3.121594144968301 25.355583875438725 0 0 0
1604 1 4.73891102338047 1.485683731221396 26.89848765787535 0 0 0
1606 1 7.876990832280769 1.6076112095748316 26.88819505831529 0 0 0
1408 2 11.144294322250726 1.522226045582927 23.734226030735833 0 0 0
1627 2 9.43959142796015 3.121046438249204 25.320025761410356 0 0 0
1608 1 11.114717373047863 1.5629515211106149 26.882536179920805 0 0 0
1410 1 14.25773403460793 1.5242033862840716 23.747178594695907 0 0 0
1011 2 15.80173164632153 0.07549437815716505 15.801407133324105 0 0 0
1629 2 12.725523237643255 3.1533413770039527 25.29825531035621 0 0 0
1610 2 14.270789297130776 1.575276228318024 26.99466799790259 0 0 0
1246 2 7.906159360453995 7.8583172116681235 20.535894524622705 0 0 0
1643 2 3.171113577030497 6.27647615138349 25.235664669912605 0 0 0
1622 2 1.6323004842428783 4.722833006649323 26.897606711054465 0 0 0
1442 2 1.6412910561763212 7.806432449636302 23.711245688822665 0 0 0
1645 1 6.3482875217979355 6.2677989978695985 25.314665823766212 0 0 0
1624 1 4.7396684410941265 4.749978196117291 26.854558088206677 0 0 0
1626 1 7.886961716565946 4.74406317251127 26.914070246617143 0 0 0
1845 1 6.25149564514356 6.257186633689716 28.50172748698798 0 0 0
1426 1 7.843076287055463 4.703685478678644 23.73743399235753 0 0 0
1647 1 9.533055443816064 6.321564858275827 25.25576328569016 0 0 0
1628 2 10.994447514125875 4.656546210268321 26.84831814688329 0 0 0
1648 2 11.160945502903433 7.873893049504771 26.843800518816476 0 0 0
1448 1 11.060224557913335 7.896746077474592 23.777290981962445 0 0 0
1649 2 12.716745190960808 6.329195034685329 25.31677516779691 0 0 0
1630 2 14.230763817521385 4.754750337481211 26.89874341338728 0 0 0
2047 2 9.43336200577945 6.348102971260184 31.623488067193247 0 0 0
1824 2 4.800458965951311 4.676598711313088 30.141493607170123 0 0 0
1650 2 14.191859532818237 7.884928155072002 26.943800796185624 0 0 0
1828 2 10.99238320396899 4.675198683057514 30.056332678768214 0 0 0
1802 2 1.6075684508642358 1.5583900924934526 30.056780967136888 0 0 0
1823 2 3.1219793322395897 3.1431599363877365 28.41208459722314 0 0 0
1244 2 4.836119767375101 7.838672109088213 20.53101663607211 0 0 0
1826 2 7.903657645665212 4.653953474297756 30.0328354472561 0 0 0
1825 1 6.287519359689622 3.145459267571723 28.472676144124577 0 0 0
1804 2 4.731732436660181 1.611480341735314 30.139092513549897 0 0 0
1806 1 7.984004402512726 1.5825477316713343 30.067306564044195 0 0 0
1827 1 9.531004365375418 3.1139557148762895 28.44332079692967 0 0 0
1808 1 11.0918522781718 1.5581542614016801 29.980546771587015 0 0 0
1847 1 9.402275386339717 6.346397211445879 28.499731546854832 0 0 0
1811 1 15.789629963322616 0.008453938052222911 28.54599597549405 0 0 0
1810 1 14.210321118324861 1.5926139939093007 30.020585883199555 0 0 0
1829 2 12.71569516287952 3.0754382905126914 28.48371644598679 0 0 0
1809 1 12.658336400054681 0.00680921443943195 28.49801049832228 0 0 0
1046 1 7.925742990896874 7.8837732838958035 17.39116281238933 0 0 0
1842 2 1.6292463974383358 7.903110210172115 30.086869585796137 0 0 0
1822 1 1.6443590324422064 4.821495164010183 29.993958731400586 0 0 0
1843 2 3.232211281231917 6.3296970398010135 28.439932816912282 0 0 0
2031 1 15.79556221479601 3.028854645583028 31.602831196126733 0 0 0
2029 2 12.657990474800766 3.1946591058134963 31.62118982339213 0 0 0
2045 2 6.25742274898985 6.315299383749719 31.63520066956806 0 0 0
2007 1 9.48180395651824 0.02209351777225521 31.610625192598004 0 0 0
2002 2 1.5964880814483766 1.5700358498354077 33.194858075321264 0 0 0
2223 1 3.050434011744397 3.150598102997904 34.79471909783429 0 0 0
2611 1 15.73550800366183 0.010480916515845706 41.121141765770076 0 0 0
2004 2 4.7834514773094865 1.5647275096982742 33.24501852743608 0 0 0
2225 2 6.417147358882228 3.1511922499319267 34.818980021503236 0 0 0
2005 2 6.356542269719883 0.0927647191529834 31.70338100981984 0 0 0
2025 2 6.328076766109515 3.165332806012621 31.65408880955009 0 0 0
2006 1 7.949145081223122 1.6852978710872166 33.172677323113945 0 0 0
2008 1 11.114729122542547 1.6598177114506723 33.244987746815184 0 0 0
2227 2 9.444367813492669 3.318310651009987 34.884566402873475 0 0 0
2207 2 9.497334351209567 0.07989744508618889 34.75826374725456 0 0 0
2027 1 9.514589246349939 3.152932516502096 31.654136943787258 0 0 0
2010 2 14.213845350519701 1.6248489751890909 33.29802626208896 0 0 0
2229 1 12.64549113361247 3.2562484712124484 34.812228009247406 0 0 0
2209 2 12.550927144226609 0.03737437376008877 34.81936617519542 0 0 0
2231 1 15.791006732415976 3.3309943765873125 34.83615702536604 0 0 0
2830 1 14.179367731351912 4.733805615376899 45.789613568276756 0 0 0
2605 2 6.335377932542483 -0.009510298956556085 41.132684210433396 0 0 0
2403 1 3.0867063433651043 0.0006432203180182228 38.027086853743185 0 0 0
2022 2 1.5798735635350964 4.740916231682813 33.22808326748501 0 0 0
2243 2 3.180659410826156 6.3475380914573325 34.830108198979694 0 0 0
2042 1 1.5073579942411417 7.90122070394923 33.345337387123166 0 0 0
2849 2 12.607019509720173 6.320669907494691 44.34166602061983 0 0 0
2024 2 4.740311587151364 4.732238109481302 33.25847209458274 0 0 0
2245 2 6.273966459443494 6.33218546424623 34.868812209585684 0 0 0
2211 2 15.803983100546635 -0.00696454650293532 34.833086855202524 0 0 0
2026 1 7.909385815389356 4.750491103379717 33.19147027588854 0 0 0
2028 2 11.037988360277962 4.807418606734339 33.194092048419854 0 0 0
2247 2 9.494520216901812 6.448457020607543 34.72032551421395 0 0 0
2641 1 0.028881466225229246 6.386710718453377 41.15671622194951 0 0 0
2030 1 14.181367984880259 4.738292420501676 33.2529719793206 0 0 0
2249 2 12.689162514149086 6.3657290872563035 34.83769879326673 0 0 0
2423 1 3.1416224058072384 3.2563526995670724 38.017326626397804 0 0 0
2202 1 1.6011425068376857 1.6453898076164122 36.444484852437924 0 0 0
2402 1 1.4850109632429311 1.6159649054127456 39.611927694697876 0 0 0
2425 1 6.280661933693316 3.118837732128406 37.996901692712136 0 0 0
2204 2 4.733363016648855 1.5358838008492983 36.43640603936876 0 0 0
2404 2 4.786742734505169 1.62095098690449 39.549276912043034 0 0 0
2441 1 0.02287615466907056 6.32653726389976 37.93865811625576 0 0 0
2206 2 7.910956643049028 1.551837891789675 36.40691786903287 0 0 0
2427 2 9.513551211828165 3.256961912993298 38.06669531965241 0 0 0
2208 2 10.987554580080317 1.696165588764652 36.41791191625878 0 0 0
2851 2 15.794630882153523 6.271292662061975 44.331419230544576 0 0 0
2429 2 12.634073677135248 3.18765516648431 37.93303575940211 0 0 0
2210 1 14.269286778080486 1.694221849905803 36.31788918593759 0 0 0
2409 1 12.681237200814522 0.09933568373154879 37.93804194312121 0 0 0
2443 1 3.0852111752811515 6.324305749349924 37.94329822387654 0 0 0
2222 1 1.5500983723280262 4.76166959585764 36.37200680556743 0 0 0
2421 2 0.012373501236162099 3.1580693814528518 37.97664941759683 0 0 0
2445 2 6.375479007449403 6.399231693973291 37.98319221985037 0 0 0
2224 1 4.679882285730531 4.742546391329988 36.378174790758706 0 0 0
2431 2 15.808037459393626 3.2519052810502287 37.99926109379229 0 0 0
2226 2 7.850431828274435 4.717856889903581 36.37011939408027 0 0 0
2447 2 9.570198734353214 6.332249554410869 37.902379436669804 0 0 0
2228 2 11.158825200329558 4.813027506974413 36.46352915649943 0 0 0
2847 2 9.458281328936692 6.261398152060576 44.307050961629564 0 0 0
2449 1 12.690653927320254 6.372006177638164 38.02740464435972 0 0 0
2230 2 14.19096516995372 4.752844837157794 36.45482466734327 0 0 0
2250 2 14.227638379654554 7.867725261834556 36.37301585017965 0 0 0
2828 2 11.069398383731366 4.699336990003446 45.793442557881484 0 0 0
2623 1 3.2167906238220922 3.0781513129709053 41.1189644676832 0 0 0
2602 1 1.5720392830741399 1.5216517677003345 42.75261905008231 0 0 0
2625 1 6.385357454930062 3.1130891092330373 41.126000603378 0 0 0
2604 1 4.737248789942632 1.4735955642445404 42.699304455085155 0 0 0
2406 1 7.972095672184632 1.5502281317276494 39.521601825200705 0 0 0
2607 2 9.549060977406807 0.02292988826886997 41.086783408645694 0 0 0
2408 1 11.12139490707042 1.6116645290817269 39.554651685229665 0 0 0
2606 1 7.880187256067083 1.6257789279426151 42.74903810823816 0 0 0
2627 1 9.387056162675965 3.1928543931938784 41.11884897514653 0 0 0
2608 1 11.024569110504755 1.567243399164099 42.744099162763604 0 0 0
2410 2 14.29604199798283 1.5801340749125297 39.47321054651693 0 0 0
2848 1 11.056266030249787 7.851820486900792 45.931573985616225 0 0 0
2629 2 12.577578298919741 3.1503231129312406 41.144032046023334 0 0 0
2610 1 14.191596568414711 1.5207521227321434 42.68345456074504 0 0 0
2422 2 1.54099892957244 4.756858623111774 39.63241931005163 0 0 0
2643 2 3.15351437219643 6.297407165204606 41.168933237312 0 0 0
2622 1 1.636905737568005 4.760476668533969 42.71862975397302 0 0 0
2424 1 4.733776161185352 4.8140165659396486 39.51244502116849 0 0 0
2645 1 6.325706772187559 6.326421448771829 41.16414227698227 0 0 0
2624 1 4.751700838974598 4.67786252357339 42.70850271687915 0 0 0
2626 2 7.816745370951314 4.717471738291463 42.76152893885271 0 0 0
2426 2 7.843119757449852 4.77983582306002 39.482867779950844 0 0 0
2428 1 11.164904892114633 4.7738417062596135 39.58698055044234 0 0 0
2446 2 7.887175900116877 7.883814574450671 39.5647426512564 0 0 0
2628 1 11.059070332683824 4.8297745995025 42.729104473568306 0 0 0
2647 1 9.576634724682622 6.369273208439161 41.162320079777054 0 0 0
2430 2 14.314566352719082 4.698833710121348 39.66803518834135 0 0 0
2630 2 14.08385583890975 4.659080463966477 42.73876918535406 0 0 0
2649 1 12.642793389517045 6.306978604103579 41.10220503437031 0 0 0
2824 2 4.765710833623366 4.782470927721066 45.874745168898016 0 0 0
2845 1 6.278457148655648 6.329007212330006 44.2690142953307 0 0 0
2821 2 -0.008383537694826781 3.1781261084053827 44.35762768685887 0 0 0
2823 2 3.1398376826973555 3.103836907629699 44.27603151713123 0 0 0
2802 2 1.6092433987941068 1.4716982690223028 45.87699042575043 0 0 0
2205 2 6.4008539331073315 -0.010217542802642754 34.79618706904201 0 0 0
2804 2 4.682044407250952 1.5443182360232819 45.937787130143974 0 0 0
2825 1 6.286126823373215 3.1005669408948333 44.31644661291869 0 0 0
2806 1 7.870761779083328 1.5460403635902602 45.87990737048235 0 0 0
3025 2 6.324160976015583 3.1437105319632006 47.47334645715316 0 0 0
2826 1 7.87480295844514 4.791878720495741 45.892008881150424 0 0 0
2808 2 10.9857321389343 1.530224545979584 45.959631576556 0 0 0
2827 1 9.50617173816315 3.152564558840279 44.311671011548455 0 0 0
3027 1 9.51360919106168 3.167913391087367 47.46008358881531 0 0 0
2844 1 4.743196481056739 7.879877934548655 45.789990295109845 0 0 0
3043 2 3.1334554963914467 6.3082148116968595 47.436252005684956 0 0 0
2810 2 14.093456898995788 1.3839744401828697 45.943357031436726 0 0 0
2829 1 12.678990523209192 3.043803752760143 44.38550315584722 0 0 0
2822 1 1.5353295528530562 4.711219552292784 45.874981873111544 0 0 0
2842 1 1.56004036601117 7.8837237080918445 45.95804417180252 0 0 0
2843 1 3.17382043186107 6.282683215884308 44.34781189269089 0 0 0
2044 1 4.7072802952350035 7.882073228399149 33.23944476800766 0 0 0
2050 1 14.289624270109302 7.883064136462787 33.24288049716888 0 0 0
2846 1 7.841201547931463 7.874141655693651 45.91503554519724 0 0 0
2811 2 15.78300892092491 0.03539269616693019 44.34019514916245 0 0 0
2203 2 3.1072210602020616 -0.003443369221159287 34.80934579474558 0 0 0
3045 1 6.322005949817878 6.412691460338442 47.459225879918385 0 0 0
3047 1 9.448904687537283 6.243391217162002 47.410509966601914 0 0 0
3005 2 6.323210510957089 -0.0026287152331434527 47.482605160794314 0 0 0
2041 1 0.040726728677036306 6.376416274188549 31.672743509488328 0 0 0
2049 2 12.701845422045729 6.268501538363448 31.71161917364236 0 0 0
2023 1 3.0825751349678816 3.1596276481530756 31.653198028721096 0 0 0
2009 2 12.709725185159078 0.0343371987110626 31.648570664519838 0 0 0
2043 1 3.1348450873799862 6.307023994695119 31.649751455118334 0 0 0
3002 2 1.5390839569084223 1.5039014093038376 49.148225224802054 0 0 0
3223 2 3.1179645217731475 3.1484168347528443 50.6879945251743 0 0 0
4049 1 12.638155666766597 6.250834950595955 63.315527531961095 0 0 0
3004 2 4.678968594430823 1.6040117577480146 49.101882628191944 0 0 0
3225 2 6.323672090954176 3.2199494846040713 50.580721690247 0 0 0
3205 2 6.346523305253681 0.025728063890148263 50.653700449384225 0 0 0
3006 2 7.8624493993000675 1.5219545292196615 49.03552138471458 0 0 0
3008 1 11.082982258018488 1.4373131989039836 49.03979580946404 0 0 0
3227 1 9.476019772435215 3.0792848144274414 50.51960113336496 0 0 0
3010 1 14.254354637484417 1.4797798260091173 49.0763105657552 0 0 0
3229 1 12.639636178521616 3.022817971162217 50.64489393978168 0 0 0
3031 2 15.778326392267386 3.1756020314269406 47.51861986287989 0 0 0
3231 1 15.73307811365005 3.127794734054783 50.60652357868479 0 0 0
3029 2 12.717951764563974 3.046678916249111 47.57077707071876 0 0 0
3022 1 1.5147193475227936 4.775909107809755 49.163899181344654 0 0 0
3243 2 3.1724413387053447 6.293019403510493 50.700926434306304 0 0 0
3830 2 14.244021820313549 4.680387002459935 61.87661800841658 0 0 0
3021 1 -0.00803778469174432 3.124767921652296 47.491629876986615 0 0 0
3849 2 12.431446719897812 6.307836893271315 60.13462182275458 0 0 0
3024 1 4.770579556091758 4.76776931980458 49.03877732688756 0 0 0
3245 2 6.259052248450108 6.367107714096331 50.67576597354122 0 0 0
3607 2 9.443236858926838 0.015393524278586312 57.03233676635798 0 0 0
3026 1 7.900816535503973 4.810316246239365 49.121894173318026 0 0 0
3826 1 7.819585433310225 4.677544627746851 61.75870328358849 0 0 0
3028 1 11.13819629282584 4.738257983803841 49.07159502554322 0 0 0
3247 1 9.506030061370241 6.359331329211448 50.68087286874154 0 0 0
3048 2 11.011205232135717 7.882340452862611 49.01537415865428 0 0 0
3803 2 3.1124104060520295 0.016061415020459435 60.22293821441188 0 0 0
3030 1 14.251883249429794 4.7533319662948434 49.09942098063559 0 0 0
3249 2 12.606127283005897 6.347764363457857 50.5618662577583 0 0 0
3050 1 14.244892187153837 7.853926037609382 49.099681864871556 0 0 0
3850 2 14.149587828339886 7.775053145789342 61.72877227412895 0 0 0
3051 1 15.795610522611389 6.321166779268971 47.54426602097511 0 0 0
3423 1 3.1008588597584867 3.1588443374006903 53.802448944882165 0 0 0
3202 2 1.5715763627214934 1.4815674921837532 52.15762788062595 0 0 0
3402 1 1.5464880779160637 1.5934078939045087 55.40361897671681 0 0 0
3405 2 6.3441812204024925 0.03635104420537933 53.787445932527106 0 0 0
3425 2 6.228553545880685 3.1778540095029357 53.8337725078526 0 0 0
3204 2 4.645409521723463 1.5418153835580186 52.20421112571075 0 0 0
3206 2 7.904818718420757 1.679129231910781 52.19004871172803 0 0 0
3406 2 7.87616040701194 1.6143461948652185 55.42337601331448 0 0 0
3404 2 4.6649861273383575 1.5491309222670255 55.340977703526974 0 0 0
3407 2 9.569895808215747 0.013220657818491056 53.81047524291402 0 0 0
3427 1 9.451866135789986 3.122497780067953 53.76743705527865 0 0 0
3208 2 11.047654863180508 1.602908627231874 52.19601795005214 0 0 0
3408 1 11.01659786526973 1.624633839446628 55.3655825483749 0 0 0
3403 2 3.1256962840414713 0.0270131715152786 53.82735012053919 0 0 0
3843 2 3.0772576329240913 6.307527400484617 60.06438893049128 0 0 0
3429 1 12.684932188096882 3.1130603687922345 53.89356307337196 0 0 0
3210 1 14.205572654351844 1.4522822112551756 52.24994073550045 0 0 0
3443 2 3.145727630600321 6.392421753519338 53.795338547815476 0 0 0
3222 1 1.4573053388017212 4.701301964888697 52.17443762784709 0 0 0
3422 2 1.5779636045813752 4.777191002126281 55.378638559848156 0 0 0
4043 1 3.124285388344162 6.291488339275576 63.2671295977001 0 0 0
3445 1 6.326578366766006 6.349269131204841 53.96392935573874 0 0 0
3224 2 4.699829067702257 4.643091275204627 52.20810279734987 0 0 0
3424 2 4.728083128372757 4.693808196436363 55.39426431660922 0 0 0
3822 1 1.4850307377828553 4.654989717913831 61.695230783781334 0 0 0
3426 2 7.776509904738896 4.696387860867905 55.45322032500734 0 0 0
3226 2 7.981313285903194 4.789638181957683 52.27829790893441 0 0 0
3447 2 9.524369418346089 6.327517793015067 53.84167516979179 0 0 0
3228 1 11.066274177354403 4.657761011241924 52.160259404817005 0 0 0
3428 2 10.982993552716177 4.647093896193447 55.32821821481388 0 0 0