

# Styles
	units        metal
	atom_style   atomic
	pair_style   eam/fs

# Neighbour list
	neighbor        2.0 bin
	neigh_modify    check yes


# Boundary conditions
	boundary p p p


# ----------------- Atom Definition Section -----------------

read_data "solid.data"
Reading data file ...
  orthogonal box = (-0.016319894 -0.026116788 -0.077393605) to (31.66632 31.676117 79.202394)
  2 by 2 by 10 MPI processor grid
  reading atom labelmap ...
  reading atoms ...
  5000 atoms
  reading velocities ...
  5000 velocities
  read_data CPU = 0.071 seconds

read_data "liquid.data" add append shift 37 0 0
Reading data file ...
WARNING: Non-zero image flags with growing box leads to bad coordinates (src/read_data.cpp:589)
  orthogonal box = (-0.016319894 -0.026116788 -0.077393605) to (68.66632 31.676117 79.202394)
  4 by 2 by 5 MPI processor grid
  reading atom labelmap ...
  reading atoms ...
  5000 atoms
  reading velocities ...
  5000 velocities
  read_data CPU = 0.074 seconds

# ----------------- Settings Section -----------------

include "coexistence.in.settings"
# ----- SETTINGS -----
# Forcefield
	pair_coeff * * W-Mo.eam.fs W Mo

# Collection of atoms
	group alloy type  1 2
10000 atoms in group alloy


# ----------------- Run Section -----------------

include "coexistence.in.run"
# Thermo output
	compute msd all msd

	thermo          1000
	thermo_style    custom step temp press pe ke etotal vol density enthalpy c_msd[1] c_msd[2] c_msd[3]
	thermo_modify   flush yes

# Dump configuration
	dump            d1 all custom 25000 coexistence_W-Mo.dump id type element x y z xu yu zu vx vy vz
	dump_modify     d1 element W Mo


# ----- EQUILIBRATION AT Ti -----
	minimize 1e-25 1e-25 5000 10000
Neighbor list info ...
  update: every = 1 steps, delay = 0 steps, check = yes
  max neighbors/atom: 2000, page size: 100000
  master list distance cutoff = 7.3
  ghost atom cutoff = 7.3
  binsize = 3.65, bins = 19 9 22
  1 neighbor lists, perpetual/occasional/extra = 1 0 0
  (1) pair eam/fs, perpetual
      attributes: half, newton on
      pair build: half/bin/atomonly/newton
      stencil: half/bin/3d
      bin: standard
Per MPI rank memory allocation (min/avg/max) = 4.855 | 4.862 | 4.87 Mbytes
   Step          Temp          Press          PotEng         KinEng         TotEng         Volume        Density        Enthalpy       c_msd[1]       c_msd[2]       c_msd[3]   
         0   3147.3145      737794.18     -12116.362      4067.8164     -8048.5456      172623.26      13.463879      71443.593      0              0              0            
      1000   3147.3145      10128.626     -76235.047      4067.8164     -72167.23       172623.26      13.463879     -71075.942      0.54472029     0.202136       0.20734378   
      2000   3147.3145     -180.17847     -76281.213      4067.8164     -72213.397      172623.26      13.463879     -72232.81       0.70364905     0.21621516     0.21542002   
      2307   3147.3145     -272.33714     -76281.705      4067.8164     -72213.888      172623.26      13.463879     -72243.231      0.70611361     0.21605454     0.21504173   
Loop time of 3.95406 on 40 procs for 2307 steps with 10000 atoms

95.4% CPU use with 40 MPI tasks x 1 OpenMP threads

Minimization stats:
  Stopping criterion = energy tolerance
  Energy initial, next-to-last, final = 
       -12116.36204945   -76281.704776988   -76281.704776988
  Force two-norm initial, final = 224306.09 4.4897918e-05
  Force max component initial, final = 94125.607 1.3486957e-05
  Final line search alpha, max atom move = 1 1.3486957e-05
  Iterations, force evaluations = 2307 4350

MPI task timing breakdown:
Section |  min time  |  avg time  |  max time  |%varavg| %total
---------------------------------------------------------------
Pair    | 2.56       | 2.7274     | 3.024      |   8.7 | 68.98
Neigh   | 0.020411   | 0.02317    | 0.026783   |   1.3 |  0.59
Comm    | 0.59477    | 0.84343    | 1.0349     |  13.7 | 21.33
Output  | 0.00018092 | 0.00018558 | 0.00027651 |   0.0 |  0.00
Modify  | 0          | 0          | 0          |   0.0 |  0.00
Other   |            | 0.3598     |            |       |  9.10

Nlocal:            250 ave         278 max         230 min
Histogram: 4 8 5 5 8 0 0 1 4 5
Nghost:        1459.78 ave        1553 max        1344 min
Histogram: 6 4 0 6 4 0 0 2 12 6
Neighs:        12457.9 ave       15369 max       10337 min
Histogram: 8 2 2 15 3 0 0 0 4 6

Total # of neighbors = 498316
Ave neighs/atom = 49.8316
Neighbor list builds = 48
Dangerous builds = 0

	fix             feq all npt temp ${Ti} ${Ti} ${tdamp} aniso ${press} ${press} ${pdamp}
	fix             feq all npt temp 3800 ${Ti} ${tdamp} aniso ${press} ${press} ${pdamp}
	fix             feq all npt temp 3800 3800 ${tdamp} aniso ${press} ${press} ${pdamp}
	fix             feq all npt temp 3800 3800 0.1 aniso ${press} ${press} ${pdamp}
	fix             feq all npt temp 3800 3800 0.1 aniso 1 ${press} ${pdamp}
	fix             feq all npt temp 3800 3800 0.1 aniso 1 1 ${pdamp}
	fix             feq all npt temp 3800 3800 0.1 aniso 1 1 1
	run             1000000    # 1 ns
Per MPI rank memory allocation (min/avg/max) = 5.007 | 5.013 | 5.021 Mbytes
   Step          Temp          Press          PotEng         KinEng         TotEng         Volume        Density        Enthalpy       c_msd[1]       c_msd[2]       c_msd[3]   
      2307   3147.3145     -272.33714     -76281.705      4067.8164     -72213.888      172623.26      13.463879     -72243.231      0.70611361     0.21605454     0.21504173   
      3000   2772.1894     -2931.458      -71884.301      3582.9777     -68301.324      177940.64      13.06154      -68626.897      2.7046491      0.46737898     0.4616993    
      4000   3793.2738     -1117.8307     -69323.929      4902.7008     -64421.228      184521.54      12.595704     -64549.968      11.647534      1.6504464      1.6704805    
      5000   3767.6535     -2930.0525     -69486.986      4869.5874     -64617.398      183013.09      12.699522     -64952.092      8.9109483      2.8877324      2.8044794    
      6000   3794.5285     -1449.2729     -69877.409      4904.3225     -64973.086      180945.84      12.84461      -65136.763      6.4266253      3.9086562      3.843705     
      7000   3819.666       4001.2288     -70155.162      4936.8121     -65218.35       179451.86      12.951545     -64770.192      5.8067416      4.6953407      4.6217581    
      8000   3783.9111      809.34979     -70199.182      4890.5999     -65308.582      179371.13      12.957374     -65217.972      6.4095653      5.6778515      5.2534524    
      9000   3824.397       1605.1191     -70362.987      4942.9267     -65420.061      178535         13.018057     -65241.198      6.6936699      5.9845774      5.9831138    
     10000   3769.3949      175.20372     -70465.155      4871.8381     -65593.317      178198.14      13.042665     -65573.83       7.1040234      6.6555178      6.0646714    
     11000   3773.3267     -225.65466     -70602.674      4876.9199     -65725.754      177820.18      13.070388     -65750.799      8.2106695      7.0249789      6.9316718    
     12000   3810.0956      3710.4629     -70674.539      4924.4426     -65750.096      177342.77      13.105573     -65339.39       8.9917724      7.2721065      7.3997201    
     13000   3772.0354     -35.968541     -70738.828      4875.2508     -65863.577      177362.32      13.104129     -65867.559      9.5338169      7.817017       7.5567796    
     14000   3843.3663     -922.79386     -70938.994      4967.444      -65971.55       176843.06      13.142607     -66073.405      10.201117      7.8316037      8.0404397    
     15000   3757.3621     -822.17606     -70946.749      4856.2861     -66090.463      176882.93      13.139644     -66181.233      9.5909902      8.0251543      7.9308919    
     16000   3805.5779      962.10588     -70971.443      4918.6036     -66052.84       176572.56      13.16274      -65946.808      12.640732      8.4239999      8.7497296    
     17000   3832.8759     -1692.6921     -71076.954      4953.8856     -66123.068      176608.72      13.160045     -66309.655      11.554288      8.73527        8.582369     
     18000   3758.5901     -2618.7437     -71135.344      4857.8732     -66277.47       176234.53      13.187987     -66565.524      11.783018      8.5897283      9.2314503    
     19000   3832.6194      3088.3939     -71233.049      4953.5539     -66279.495      175792.18      13.221172     -65940.634      11.832593      8.9682037      8.7944289    
     20000   3826.9775      516.68787     -71350.135      4946.2619     -66403.873      175762.37      13.223415     -66347.192      13.028792      9.2482877      9.2721186    
     21000   3769.2145     -2119.1165     -71295.141      4871.6049     -66423.536      176016.57      13.204318     -66656.344      14.428281      9.472567       9.7956147    
     22000   3767.1454      1948.9297     -71289.003      4868.9306     -66420.073      175587.15      13.236611     -66206.484      13.716911      9.7863012      9.4472958    
     23000   3781.0194     -1375.6747     -71504.832      4886.8624     -66617.97       175513.89      13.242136     -66768.671      15.267899      9.7187438      10.094355    
     24000   3812.4516      159.51986     -71584.314      4927.4877     -66656.826      175073.96      13.275411     -66639.395      15.518617      9.7072364      10.244834    
     25000   3808.2582     -226.53843     -71786.188      4922.0678     -66864.121      174589.86      13.312221     -66888.807      16.815888      9.9663175      10.203153    
     26000   3791.6618     -2030.262      -72068.547      4900.6175     -67167.929      174014.46      13.356239     -67388.439      18.429495      10.155668      10.096353    
     27000   3830.7241      3337.9548     -72319.412      4951.1044     -67368.308      173060.37      13.429872     -67007.756      19.962102      10.201747      10.0104      
     28000   3770.2223     -3446.6146     -72457.528      4872.9075     -67584.62       173256.78      13.414648     -67957.332      21.169438      10.153175      10.483212    
     29000   3824.3452      1767.3205     -72516.509      4942.8598     -67573.649      172814.17      13.449005     -67383.022      20.836052      10.139224      10.138017    
     30000   3800.7826      2442.0334     -72501.739      4912.4058     -67589.334      172838.81      13.447088     -67325.893      20.70261       10.334002      10.004735    
     31000   3729.8969     -5567.5193     -72511.244      4820.788      -67690.456      173193.42      13.419556     -68292.298      22.351881      10.386037      10.489549    
     32000   3817.7724      3943.2584     -72520.217      4934.3647     -67585.852      172532.12      13.470992     -67161.218      20.934896      10.12606       10.061259    
     33000   3781.2058     -1993.0463     -72581.677      4887.1033     -67694.574      172936.91      13.43946      -67909.701      21.943343      10.383075      10.345015    
     34000   3882.3185     -238.32898     -72618.917      5017.7887     -67601.128      172915.29      13.441141     -67626.85       21.482741      10.061792      10.600579    
     35000   3832.8603      164.27301     -72597.344      4953.8653     -67643.479      172715.68      13.456675     -67625.77       20.632005      10.56315       9.8411329    
     36000   3801.5129      1672.1541     -72642.999      4913.3497     -67729.649      172473.76      13.47555      -67549.642      21.927322      10.334782      10.146759    
     37000   3812.1814     -144.06917     -72496.854      4927.1384     -67569.716      172895.35      13.442691     -67585.262      20.688236      10.456363      9.9607099    
     38000   3790.905      -2351.3259     -72588.051      4899.6392     -67688.411      172831.94      13.447623     -67942.057      20.718339      10.327281      10.193521    
     39000   3868.9824     -5162.9655     -72556.329      5000.5521     -67555.777      173130.48      13.424434     -68113.684      22.502105      10.670409      10.210313    
     40000   3812.2747      3862.8347     -72616.336      4927.259      -67689.077      172484.19      13.474735     -67273.219      21.02837       10.18382       10.239114    
     41000   3788.3282     -4746.7462     -72576.171      4896.3088     -67679.863      173062.5       13.429708     -68192.592      20.719548      10.375805      10.214557    
     42000   3799.6389      3717.4608     -72608.094      4910.9276     -67697.167      172443.92      13.477882     -67297.053      22.966759      10.419759      10.342414    
     43000   3820.0184     -1379.1277     -72611.854      4937.2676     -67674.587      172812.76      13.449115     -67823.341      21.091359      10.459712      10.10486     
     44000   3826.9159     -2718.0644     -72521.712      4946.1824     -67575.529      173076.22      13.428643     -67869.15       20.054353      10.27556       10.226576    
     45000   3817.1062      3334.2408     -72641.744      4933.5037     -67708.24       172343.85      13.485707     -67349.58       22.585688      10.369765      10.384349    
     46000   3809.5568     -2170.173      -72544.91       4923.7462     -67621.164      173005.4       13.43414      -67855.502      21.581796      10.418348      10.381572    
     47000   3793.0802      277.733       -72626.921      4902.4507     -67724.47       172605.95      13.46523      -67694.549      21.798416      10.521926      10.201805    
     48000   3825.8598      7230.7686     -72586.579      4944.8174     -67641.761      172216.75      13.49566      -66864.531      22.966766      10.536253      10.138081    
     49000   3803.1635     -1052.3998     -72555.758      4915.483      -67640.275      172949.28      13.438499     -67753.878      21.337288      10.453994      10.337641    
     50000   3772.6237      763.55049     -72537.121      4876.0112     -67661.11       172825.44      13.448129     -67578.746      20.883652      10.403362      10.181258    
     51000   3871.7446      517.08561     -72613.921      5004.1222     -67609.798      172609.3       13.464968     -67554.091      21.251568      10.292574      10.328466    
     52000   3749.9336     -1775.2287     -72577.184      4846.685      -67730.499      172801.38      13.450001     -67921.965      22.331329      10.446791      10.491982    
     53000   3777.6003     -1850.3394     -72584.731      4882.4433     -67702.287      172873.18      13.444414     -67901.937      20.354168      10.550092      10.041073    
     54000   3807.2883      3110.0653     -72579.575      4920.8143     -67658.761      172554.88      13.469215     -67323.806      21.355686      10.313993      10.330948    
     55000   3855.9597      1073.6571     -72656.069      4983.7206     -67672.349      172595.37      13.466055     -67556.688      21.884637      10.632305      10.128436    
     56000   3777.261      -142.6018      -72586.567      4882.0048     -67704.562      172801.23      13.450013     -67719.942      22.096497      10.651376      10.226138    
     57000   3815.0675      2624.0819     -72520.758      4930.8686     -67589.89       172722.07      13.456177     -67307.001      20.658975      10.43602       10.166726    
     58000   3822.6301     -3640.5028     -72615.437      4940.6431     -67674.794      172913.88      13.441251     -68067.693      22.269662      10.629393      10.403793    
     59000   3791.2049      722.82667     -72647.672      4900.0269     -67747.645      172584.6       13.466895     -67669.783      21.591615      10.275771      10.510803    
     60000   3850.4418      224.36279     -72640.309      4976.5889     -67663.72       172709.55      13.457153     -67639.535      20.855624      10.527475      10.147092    
     61000   3812.655      -129.58028     -72574.06       4927.7505     -67646.31       172721.45      13.456225     -67660.279      22.745775      10.49859       10.541923    
     62000   3822.1519     -1723.5016     -72534.29       4940.025      -67594.265      172925.66      13.440335     -67780.286      20.359738      10.218688      10.522449    
     63000   3833.2845     -1328.9525     -72508.65       4954.4136     -67554.236      172937.7       13.439399     -67697.682      20.72145       10.656421      10.054331    
     64000   3785.2647      538.34711     -72641.208      4892.3493     -67748.858      172607.32      13.465123     -67690.861      21.844231      10.479449      10.429998    
     65000   3811.6175     -4094.9963     -72556.548      4926.4097     -67630.139      173114.11      13.425704     -68072.6        22.449028      10.734944      10.406997    
     66000   3805.9705     -1753.3633     -72731.329      4919.111      -67812.218      172556.55      13.469085     -68001.057      20.112442      10.405667      10.078116    
     67000   3806.3401      2566.3627     -72571.53       4919.5887     -67651.941      172537.57      13.470566     -67375.571      22.762048      10.443787      10.579547    
     68000   3783.3055     -1471.1677     -72551.368      4889.8172     -67661.551      172970.48      13.436852     -67820.377      21.096909      10.506861      10.315578    
     69000   3802.5342      1813.0834     -72654.236      4914.6697     -67739.567      172414.24      13.480201     -67544.456      22.611633      10.526183      10.393111    
     70000   3837.9013      290.91473     -72647.487      4960.3807     -67687.107      172673.6       13.459954     -67655.754      20.561913      10.385186      10.311421    
     71000   3791.7213     -1968.3206     -72624.869      4900.6944     -67724.175      172824.63      13.448191     -67936.495      22.168875      10.485875      10.505731    
     72000   3801.5136      5747.6673     -72539.009      4913.3506     -67625.659      172353.11      13.484983     -67007.357      20.701077      10.346275      10.325689    
     73000   3783.6289     -7265.9961     -72616.948      4890.2351     -67726.713      173219.5       13.417535     -68512.277      21.353513      10.677007      10.305811    
     74000   3822.7557      5994.5015     -72647.916      4940.8054     -67707.11       172185.82      13.498085     -67062.882      20.647362      10.360475      10.132809    
     75000   3815.8448     -2846.2049     -72601.656      4931.8732     -67669.783      172937.7       13.439399     -67977          21.554268      10.536238      10.500083    
     76000   3792.66        4584.5285     -72627.307      4901.9076     -67725.4        172256.1       13.492578     -67232.5        21.706125      10.402087      10.299351    
     77000   3771.6482     -3302.2198     -72615.38       4874.7504     -67740.629      172853.72      13.445928     -68096.895      21.856261      10.676848      10.298605    
     78000   3767.9961     -1105.7435     -72553.164      4870.0301     -67683.134      172681.79      13.459316     -67802.31       20.981302      10.477104      10.37024     
     79000   3797.8175      3556.3464     -72645.888      4908.5735     -67737.315      172354.7       13.484859     -67354.74       21.120078      10.38062       10.264465    
     80000   3761.5918     -2934.8297     -72590.301      4861.7528     -67728.548      172900.84      13.442264     -68045.264      22.885287      10.742549      10.467976    
     81000   3803.94        2167.7319     -72561.67       4916.4866     -67645.183      172603.64      13.46541      -67411.652      20.76206       10.283614      10.485893    
     82000   3777.8136     -1210.5696     -72613.652      4882.719      -67730.933      172740.68      13.454727     -67861.452      22.43231       10.929089      10.202662    
     83000   3797.5387     -1951.5894     -72637.548      4908.2132     -67729.334      172852.91      13.445991     -67939.884      20.130803      10.492486      10.270602    
     84000   3816.4395     -409.30255     -72610.23       4932.6419     -67677.588      172728.09      13.455708     -67721.714      20.6012        10.455808      10.372097    
     85000   3826.4575      1902.4274     -72613.542      4945.5899     -67667.952      172572.24      13.46786      -67463.039      23.330936      10.63411       10.636392    
     86000   3787.064       1988.3562     -72652.466      4894.6749     -67757.791      172517.07      13.472167     -67543.691      21.518053      10.845023      10.126765    
     87000   3820.7597      1134.9538     -72583.767      4938.2257     -67645.541      172617.97      13.464292     -67523.261      21.746275      10.33098       10.712077    
     88000   3813.7292     -474.33101     -72615.914      4929.139      -67686.775      172730.55      13.455516     -67737.913      21.758344      10.637055      10.394142    
     89000   3828.6993     -1939.0565     -72502.307      4948.4874     -67553.82       172970.93      13.436817     -67763.16       21.903632      10.751599      10.463979    
     90000   3824.4121      6461.4012     -72557.484      4942.9463     -67614.538      172400.12      13.481306     -66919.267      23.388927      10.670653      10.531012    
     91000   3739.2958     -3199.9671     -72633.558      4832.9358     -67800.622      172875.33      13.444248     -68145.899      19.993073      10.422858      10.426641    
     92000   3814.472       1319.8292     -72635.359      4930.099      -67705.26       172590.69      13.46642      -67563.085      23.122206      10.680357      10.613558    
     93000   3759.471      -410.96911     -72578.29       4859.0118     -67719.278      172708.3       13.45725      -67763.579      19.526007      10.381697      10.352706    
     94000   3802.3337     -2388.062      -72590.928      4914.4105     -67676.518      172992.87      13.435113     -67934.366      20.875944      10.393408      10.722659    
     95000   3842.7056     -291.29733     -72612.174      4966.5902     -67645.584      172749.21      13.454063     -67676.992      22.154832      10.61566       10.582017    
     96000   3749.8185      845.3906      -72589.238      4846.5361     -67742.702      172599.05      13.465768     -67651.63       21.166818      10.555372      10.326756    
     97000   3760.1445     -2067.1373     -72633.547      4859.8822     -67773.664      172807.98      13.449487     -67996.622      23.012606      10.576126      10.942803    
     98000   3814.9155      2315.3708     -72646.509      4930.6722     -67715.837      172532.91      13.47093      -67466.502      21.905215      10.515309      10.514668    
     99000   3810.8472     -114.58422     -72657.959      4925.414      -67732.545      172668.13      13.46038      -67744.894      22.000738      10.738387      10.372944    
    100000   3863.0697      51.144554     -72618.729      4992.9102     -67625.819      172770.01      13.452443     -67620.304      21.410388      10.416414      10.766121    
    101000   3764.6769      5192.1372     -72649.27       4865.7402     -67783.529      172237.47      13.494037     -67225.363      22.046103      10.476879      10.497969    
    102000   3790.0282     -3780.9782     -72718.324      4898.506      -67819.818      172784.38      13.451324     -68227.573      21.732925      10.759196      10.286921    
    103000   3803.0711     -826.06671     -72664.209      4915.3636     -67748.846      172620.6       13.464087     -67837.847      21.461434      10.567626      10.495693    
    104000   3778.6226      2845.696      -72683.106      4883.7647     -67799.341      172258.25      13.492409     -67493.386      22.783265      10.395222      10.715281    
    105000   3816.8728     -4616.7292     -72686.573      4933.202      -67753.371      172961.3       13.437565     -68251.765      19.795538      10.517292      10.31658     
    106000   3789.9217      1220.3822     -72645.463      4898.3684     -67747.094      172497.05      13.47373      -67615.703      22.244329      10.754836      10.360026    
    107000   3841.7467      2283.6282     -72649.53       4965.3508     -67684.18       172490.96      13.474206     -67438.323      21.083418      10.41578       10.522806    
    108000   3795.7413     -2323.1099     -72709.473      4905.89       -67803.583      172703.39      13.457633     -68053.998      21.166384      10.67087       10.320861    
    109000   3829.9851     -312.64624     -72712.014      4950.1492     -67761.865      172636.11      13.462877     -67795.553      22.413515      10.686634      10.543744    
    110000   3785.791       1492.7141     -72569.376      4893.0296     -67676.347      172631.66      13.463224     -67515.509      22.614064      10.639616      10.605195    
    111000   3761.3826     -6142.5732     -72595.441      4861.4824     -67733.959      173192.02      13.419664     -68397.958      20.130269      10.822079      10.223172    
    112000   3817.2196      308.91086     -72672.718      4933.6501     -67739.068      172600.65      13.465643     -67705.79       21.515952      10.524104      10.612744    
    113000   3752.8134     -1640.4551     -72694.463      4850.407      -67844.056      172685.67      13.459013     -68020.868      21.501093      10.630205      10.431091    
    114000   3810.1322     -84.62244      -72633.156      4924.4899     -67708.666      172665.09      13.460618     -67717.786      21.341943      10.829841      10.300499    
    115000   3786.3586      3593.1231     -72725.506      4893.7632     -67831.742      172254.12      13.492732     -67445.436      22.037598      10.552115      10.492869    
    116000   3790.6977     -2614.0645     -72558.69       4899.3713     -67659.318      172962.72      13.437455     -67941.519      22.180614      10.583813      10.760076    
    117000   3804.291      -1719.3126     -72637.798      4916.9403     -67720.857      172745.28      13.454369     -67906.232      21.23406       10.74861       10.470217    
    118000   3797.4289      3584.5102     -72733.755      4908.0712     -67825.683      172195.91      13.497294     -67440.434      22.165972      10.365667      10.70072     
    119000   3813.9233     -4596.0996     -72679.184      4929.3898     -67749.794      172808.12      13.449476     -68245.522      22.749424      10.619203      10.942924    
    120000   3825.3507     -1227.9697     -72641.48       4944.1594     -67697.321      172727.6       13.455746     -67829.706      22.193262      10.885534      10.450096    
    121000   3772.3341      2458.2066     -72704.873      4875.6369     -67829.236      172343.09      13.485767     -67564.811      20.959724      10.504131      10.45529     
    122000   3807.3203     -4683.0402     -72521.102      4920.8556     -67600.246      173087.46      13.427771     -68106.168      21.591745      10.887641      10.50392     
    123000   3795.647       5123.896      -72676.582      4905.7681     -67770.814      172128.84      13.502553     -67220.331      21.126546      10.31982       10.628315    
    124000   3800.4911     -1276.7492     -72558.325      4912.029      -67646.296      172892.04      13.442948     -67784.071      21.494553      10.713421      10.552916    
    125000   3756.6718      857.04169     -72662.799      4855.3939     -67807.405      172551.46      13.469481     -67715.104      22.321383      10.889137      10.3704      
    126000   3803.5773     -828.22594     -72663.158      4916.0179     -67747.14       172698.55      13.458009     -67836.415      20.533908      10.381069      10.694834    
    127000   3727.122      -343.55923     -72656.55       4817.2015     -67839.349      172566.78      13.468286     -67876.353      22.941312      10.789755      10.674007    
    128000   3775.1233      1232.1696     -72610.91       4879.2418     -67731.668      172550.02      13.469594     -67598.967      21.225714      10.87212       10.199492    
    129000   3795.1891      1783.8603     -72699.499      4905.1763     -67794.322      172463.13      13.47638      -67602.302      21.075428      10.505271      10.583113    
    130000   3780.1083     -941.03429     -72736.948      4885.6848     -67851.263      172599.01      13.465771     -67952.638      21.663332      10.764908      10.445342    
    131000   3836.5381      684.79154     -72599.419      4958.6188     -67640.8        172728.75      13.455657     -67566.974      23.032045      10.74295       10.797363    
    132000   3852.8861     -699.82729     -72654.51       4979.7481     -67674.762      172751.56      13.45388      -67750.22       20.627016      10.572966      10.480902    
    133000   3787.8876     -1801.2213     -72630.501      4895.7393     -67734.762      172717.33      13.456546     -67928.936      22.365751      10.888045      10.503194    
    134000   3757.9312      4495.1666     -72734.617      4857.0216     -67877.595      172098.72      13.504916     -67394.744      21.125148      10.502935      10.408848    
    135000   3786.5754      2219.643      -72699.794      4894.0433     -67805.751      172358.41      13.484569     -67566.967      22.251385      10.591044      10.56385     
    136000   3756.8004     -9911.9494     -72768.673      4855.56       -67913.113      173095.18      13.427172     -68983.976      21.217449      11.147871      10.28752     
    137000   3793.1259      4982.639      -72696.761      4902.5098     -67794.251      172123.25      13.502991     -67258.962      21.784314      10.504054      10.537655    
    138000   3770.1944     -3816.1269     -72608.42       4872.8715     -67735.548      172977.33      13.43632      -68147.552      20.30118       10.539901      10.593746    
    139000   3791.777      -1736.7828     -72693.1        4900.7663     -67792.334      172596.91      13.465935     -67979.431      22.958627      11.023347      10.548813    
    140000   3813.5626      1171.1438     -72638.941      4928.9236     -67710.017      172514.62      13.472358     -67583.914      22.089605      10.576387      10.711012    
    141000   3788.1605     -1049.2937     -72747.483      4896.092      -67851.391      172560.36      13.468787     -67964.404      20.281551      10.625919      10.359771    
    142000   3814.3067     -5052.2303     -72597.955      4929.8854     -67668.07       173122.74      13.425034     -68213.987      22.439756      10.990099      10.662639    
    143000   3790.2367      5623.982      -72692.913      4898.7755     -67794.137      172139.17      13.501742     -67189.892      21.800783      10.598821      10.471203    
    144000   3777.9992      447.15932     -72637.991      4882.9589     -67755.032      172631.77      13.463216     -67706.852      20.452424      10.647849      10.359544    
    145000   3793.9436     -3910.2454     -72625.213      4903.5665     -67721.647      172974.57      13.436534     -68143.806      22.191773      10.800064      10.724071    
    146000   3802.9906      2441.0038     -72696.325      4915.2595     -67781.065      172366.11      13.483966     -67518.456      21.75325       10.770291      10.372648    
    147000   3796.8716     -1141.533      -72742.816      4907.3509     -67835.465      172494.28      13.473947     -67958.365      21.629668      10.569111      10.628709    
    148000   3834.0617     -3341.1037     -72789.911      4955.4181     -67834.493      172733.66      13.455274     -68194.704      22.457696      10.731723      10.775673    
    149000   3846.9966      4709.4266     -72599.175      4972.1361     -67627.039      172276.85      13.490952     -67120.65       20.828909      10.667345      10.273059    
    150000   3861.0567     -7336.3845     -72684.928      4990.3084     -67694.62       173128.22      13.424609     -68487.376      21.372902      10.951305      10.517919    
    151000   3798.7421      723.87103     -72653.909      4909.7685     -67744.141      172526.96      13.471394     -67666.192      22.152206      10.467778      10.951411    
    152000   3792.9201     -1055.1239     -72661.467      4902.2438     -67759.223      172734.08      13.455242     -67872.978      22.223299      10.908317      10.573177    
    153000   3801.4977     -3584.7225     -72690.017      4913.33       -67776.687      172703.62      13.457615     -68163.095      21.130264      10.730883      10.49683     
    154000   3834.1268     -991.17956     -72622.847      4955.5022     -67667.345      172779.85      13.451677     -67774.234      21.235499      10.650423      10.661606    
    155000   3781.3295      2437.4596     -72661.272      4887.2632     -67774.009      172357.92      13.484606     -67511.793      22.070312      10.760708      10.561502    
    156000   3818.1085     -4398.0918     -72597.979      4934.7991     -67663.18       173000.6       13.434513     -68138.079      21.772278      10.916824      10.560281    
    157000   3777.6408      2536.9675     -72659.896      4882.4956     -67777.401      172368.33      13.483792     -67504.464      21.922828      10.693675      10.462464    
    158000   3803.1864     -1526.0467     -72659.326      4915.5127     -67743.813      172767.61      13.45263      -67908.372      21.40097       10.707882      10.646261    
    159000   3841.945      -4643.2091     -72672.484      4965.607      -67706.877      172877.41      13.444086     -68207.887      21.508867      10.785184      10.629518    
    160000   3825.6723      6852.4298     -72676.394      4944.5751     -67731.819      172100.69      13.504761     -66995.752      21.218095      10.518687      10.492795    
    161000   3736.5123     -4699.1862     -72621.552      4829.3382     -67792.214      172981.87      13.435967     -68299.57       21.755501      10.969333      10.541635    
    162000   3858.7194      2257.7675     -72646.801      4987.2875     -67659.514      172523.77      13.471643     -67416.395      22.318029      10.720126      10.745421    
    163000   3819.3852      1595.3949     -72669.255      4936.4491     -67732.805      172503.02      13.473264     -67561.033      21.753938      10.721786      10.506636    
    164000   3793.8221     -5008.361      -72660.825      4903.4096     -67757.416      172985.86      13.435657     -68298.165      21.072293      10.808082      10.562492    
    165000   3837.1984      3588.755      -72774.476      4959.4722     -67815.003      172178.49      13.498659     -67429.336      22.004991      10.622717      10.488779    
    166000   3748.8618     -696.25826     -72691.801      4845.2996     -67846.502      172577.77      13.467428     -67921.499      21.415157      10.794848      10.542677    
    167000   3844.6867     -5380.6527     -72621.972      4969.1507     -67652.822      173162.62      13.421942     -68234.361      20.291657      10.674062      10.598048    
    168000   3862.5437      518.03355     -72754.78       4992.2303     -67762.55       172472.24      13.475668     -67706.784      21.944806      10.786198      10.530006    
    169000   3792.9225      247.58993     -72685.005      4902.2469     -67782.758      172443.95      13.47788      -67756.11       21.241538      10.615695      10.565971    
    170000   3768.6656     -2401.2273     -72727.722      4870.8955     -67856.826      172690.59      13.45863      -68115.642      21.693386      10.735503      10.61773     
    171000   3813.8335     -1910.3177     -72671.369      4929.2737     -67742.095      172671.85      13.46009      -67947.976      22.34607       10.897612      10.582817    
    172000   3753.9759     -1200.121      -72579.538      4851.9094     -67727.629      172778.15      13.451809     -67857.05       21.550525      10.693384      10.705707    
    173000   3798.3657      3382.3902     -72673.923      4909.282      -67764.641      172324.75      13.487202     -67400.842      21.115267      10.912482      10.23101     
    174000   3776.0508     -2135.7451     -72711.902      4880.4407     -67831.461      172672.56      13.460035     -68061.639      23.178562      10.819183      10.844482    
    175000   3857.1852      730.63762     -72701.078      4985.3046     -67715.773      172565.02      13.468423     -67637.079      21.279848      10.763028      10.427817    
    176000   3767.4099      286.85131     -72719.155      4869.2725     -67849.882      172508.42      13.472842     -67818.996      21.636695      10.757158      10.534461    
    177000   3834.6351     -120.41683     -72610.867      4956.1592     -67654.708      172702.35      13.457714     -67667.688      22.237401      10.790752      10.749527    
    178000   3781.6575     -2405.0935     -72585.377      4887.6871     -67697.69       172900.26      13.442309     -67957.238      23.072849      11.119073      10.634276    
    179000   3784.2799     -222.71983     -72596.174      4891.0765     -67705.098      172684.13      13.459133     -67729.103      20.842323      10.748537      10.381252    
    180000   3782.7672     -3209.6105     -72637.333      4889.1214     -67748.211      172815.34      13.448914     -68094.409      20.783878      10.756371      10.579076    
    181000   3804.5123     -1221.1289     -72679.506      4917.2263     -67762.28       172657.91      13.461178     -67893.874      22.552408      10.563592      10.968964    
    182000   3736.4317     -627.88501     -72692.451      4829.2341     -67863.217      172567.09      13.468262     -67930.845      21.068858      10.903943      10.348367    
    183000   3784.6124      392.31127     -72719.184      4891.5062     -67827.678      172440.73      13.478131     -67785.454      20.857454      10.671058      10.505628    
    184000   3815.6643      1584.0788     -72642.837      4931.64       -67711.197      172556.42      13.469095     -67540.59       21.825113      10.754979      10.548539    
    185000   3765.0701     -2536.7568     -72653.803      4866.2484     -67787.555      172769.93      13.45245      -68061.105      21.486904      10.69077       10.740553    
    186000   3873.1192      383.33063     -72747.26       5005.8988     -67741.361      172517.69      13.472118     -67700.085      21.330213      10.857187      10.324844    
    187000   3814.5252     -816.4798      -72643.079      4930.1678     -67712.912      172626.94      13.463592     -67800.884      21.951344      10.627518      10.809759    
    188000   3822.8072      986.15061     -72679.913      4940.872      -67739.041      172461.25      13.476527     -67632.89       22.127946      10.707627      10.654884    
    189000   3757.4174      71.783912     -72741.963      4856.3575     -67885.605      172433.71      13.478679     -67877.879      20.129706      10.644853      10.324866    
    190000   3824.5692     -1500.113      -72649.779      4943.1494     -67706.629      172753.71      13.453713     -67868.378      23.089205      10.840143      10.813233    
    191000   3792.765       996.91191     -72733.13       4902.0433     -67831.086      172363.15      13.484197     -67723.838      22.532166      10.683095      10.695588    
    192000   3784.491      -461.73194     -72709.985      4891.3494     -67818.635      172611.43      13.464802     -67868.38       20.643822      10.700141      10.416595    
    193000   3730.6713      229.53296     -72674.433      4821.7889     -67852.644      172506.95      13.472957     -67827.93       23.301359      10.899773      10.711499    
    194000   3820.5217      368.4637      -72707.394      4937.918      -67769.477      172535.22      13.470749     -67729.797      20.615349      10.574432      10.558037    
    195000   3779.4231     -3519.3887     -72661.349      4884.7992     -67776.55       172891.39      13.442999     -68156.329      21.597372      10.907205      10.495574    
    196000   3814.7872      2957.6125     -72744.72       4930.5064     -67814.213      172292.64      13.489716     -67496.162      21.386841      10.661735      10.581532    
    197000   3782.0618      725.74326     -72743.457      4888.2097     -67855.248      172388.94      13.482181     -67777.16       21.229316      10.706848      10.435438    
    198000   3771.7775     -2027.9363     -72624.684      4874.9175     -67749.767      172752.04      13.453843     -67968.426      20.705671      10.99484       10.206946    
    199000   3785.2345     -171.69988     -72618.516      4892.3103     -67726.206      172521.56      13.471816     -67744.695      21.090578      10.523949      10.756428    
    200000   3795.4152     -341.33002     -72619.985      4905.4685     -67714.516      172631.62      13.463227     -67751.294      20.738372      10.683311      10.4573      
    201000   3729.0414      2084.0829     -72812.699      4819.6823     -67993.017      172045.56      13.509089     -67769.223      23.52482       10.57329       10.93539     
    202000   3766.1443      635.79651     -72595.951      4867.6368     -67728.314      172645.93      13.462111     -67659.803      22.001936      10.868593      10.558161    
    203000   3895.5503     -4533.443      -72695.307      5034.8905     -67660.416      172905.59      13.441895     -68149.662      21.398147      10.683164      10.770239    
    204000   3837.7895      4816.5548     -72639.267      4960.2362     -67679.03       172229.47      13.494663     -67161.264      22.341171      10.785002      10.504016    
    205000   3757.5891      1972.9543     -72734.033      4856.5794     -67877.454      172288.62      13.490031     -67665.294      22.247531      10.60291       10.769681    
    206000   3803.0838     -4830.9863     -72618.798      4915.3801     -67703.418      172991.83      13.435193     -68225.034      20.478206      10.865187      10.398126    
    207000   3816.2262      96.266958     -72620.12       4932.3663     -67687.753      172729.78      13.455576     -67677.375      23.298127      10.776914      10.96831     
    208000   3830.8264      3239.8118     -72557.343      4951.2366     -67606.106      172469.56      13.475878     -67257.35       20.876683      10.673169      10.536545    
    209000   3777.0192     -704.24978     -72662.193      4881.6923     -67780.501      172598.34      13.465824     -67856.368      21.409889      10.74784       10.601844    
    210000   3811.0441     -1581.0559     -72557.323      4925.6685     -67631.655      172868.47      13.444781     -67802.244      21.672648      10.741548      10.735057    
    211000   3809.2058     -1917.9537     -72654.177      4923.2926     -67730.885      172771.8       13.452304     -67937.709      21.242647      10.953189      10.412619    
    212000   3782.9046     -2226.2338     -72681.11       4889.299      -67791.811      172688.09      13.458825     -68031.763      20.587208      10.519047      10.79714     
    213000   3786.3562      2613.2686     -72662.024      4893.76       -67768.264      172315.14      13.487954     -67487.205      23.40674       10.66765       10.955807    
    214000   3791.7167     -4602.2827     -72672.104      4900.6884     -67771.415      172962.39      13.43748      -68268.253      21.247896      10.873459      10.61165     
    215000   3848.4128      185.74072     -72631.897      4973.9665     -67657.93       172568.54      13.468148     -67637.924      20.997594      10.593821      10.652019    
    216000   3755.5342     -1980.5687     -72590.782      4853.9235     -67736.859      172825.46      13.448127     -67950.501      23.12481       11.01203       10.703892    
    217000   3835.6685      3558.4619     -72656.923      4957.4949     -67699.428      172268.17      13.491632     -67316.817      20.504596      10.577813      10.444111    
    218000   3809.4529     -960.06091     -72619.2        4923.612      -67695.588      172701.05      13.457814     -67799.074      21.372345      10.870374      10.484822    
    219000   3807.0606      1479.3418     -72698.645      4920.5199     -67778.126      172350.32      13.485201     -67618.989      21.699808      10.509916      10.818843    
    220000   3791.1466     -3329.017      -72714.04       4899.9516     -67814.088      172690.74      13.458618     -68172.907      21.319755      10.769101      10.566099    
    221000   3844.8811      2837.4927     -72690.785      4969.4019     -67721.383      172336.52      13.486281     -67416.171      22.515479      10.9473        10.453679    
    222000   3760.2518     -1521.9273     -72699.406      4860.0208     -67839.386      172537.89      13.470541     -68003.281      21.775481      10.622014      10.758507    
    223000   3821.7822     -1946.386      -72707.144      4939.5472     -67767.597      172618.47      13.464253     -67977.3        21.516408      10.806965      10.567474    
    224000   3825.9595      3491.8348     -72746.237      4944.9462     -67801.291      172264.53      13.491917     -67425.852      22.5243        10.642162      10.740068    
    225000   3833.3329     -2056.4908     -72608.775      4954.4762     -67654.299      172898.28      13.442463     -67876.225      21.686547      10.74969       10.789506    
    226000   3793.0733      368.29448     -72694.391      4902.4418     -67791.949      172491.16      13.474191     -67752.298      21.885043      10.964806      10.329177    
    227000   3817.9432     -5100.3463     -72702.747      4934.5854     -67768.162      172963.22      13.437416     -68318.771      22.008837      11.015949      10.564695    
    228000   3814.9156     -75.537255     -72731.789      4930.6723     -67801.116      172510.91      13.472648     -67809.25       20.911566      10.462407      10.843329    
    229000   3849.898      -949.18705     -72683.309      4975.886      -67707.423      172717.57      13.456527     -67809.747      22.585577      10.871678      10.711917    
    230000   3793.5976      2266.2688     -72703.82       4903.1194     -67800.701      172403.1       13.481073     -67556.837      22.15243       10.760986      10.65479     
    231000   3820.5024      549.78279     -72606.213      4937.8931     -67668.32       172696.33      13.458182     -67609.06       20.732862      10.95471       10.323472    
    232000   3728.3853     -2341.3062     -72626.525      4818.8343     -67807.69       172740.39      13.45475      -68060.121      22.102798      10.626758      10.933849    
    233000   3821.7196      1205.6268     -72530.522      4939.4663     -67591.055      172711.59      13.456994     -67461.091      23.493048      10.849356      10.965368    
    234000   3787.8845     -2164.3166     -72579.452      4895.7353     -67683.716      172909.03      13.441627     -67917.292      21.349278      10.878139      10.631147    
    235000   3805.4713     -260.98637     -72703.755      4918.4658     -67785.289      172607.42      13.465115     -67813.406      23.201026      11.103974      10.501368    
    236000   3775.7696      2311.9587     -72732.286      4880.0772     -67852.209      172249.08      13.493127     -67603.651      21.131518      10.635252      10.566089    
    237000   3802.7995      570.91357     -72693.818      4915.0126     -67778.806      172447.84      13.477575     -67717.356      22.022346      10.748371      10.606905    
    238000   3799.374       1006.8862     -72606.111      4910.5852     -67695.525      172643.09      13.462333     -67587.028      21.652145      10.640119      10.765486    
    239000   3828.1735     -1358.4095     -72595.341      4947.8078     -67647.533      172884.55      13.443531     -67794.114      20.314035      10.899633      10.336708    
    240000   3801.2088      3816.7221     -72756.88       4912.9566     -67843.923      172025.09      13.510696     -67434.123      22.544481      10.835328      10.52272     
    241000   3771.7558     -289.33173     -72678.464      4874.8895     -67803.574      172583.51      13.46698      -67834.741      21.850896      10.453202      11.041041    
    242000   3783.5996     -1980.2036     -72666.358      4890.1973     -67776.16       172831.56      13.447652     -67989.771      21.193149      10.965622      10.442186    
    243000   3807.9891      209.39281     -72677.571      4921.7201     -67755.851      172538.31      13.470509     -67733.302      22.11427       10.886184      10.596798    
    244000   3785.8985      196.30384     -72711.823      4893.1685     -67818.655      172435.49      13.478541     -67797.528      23.993687      10.744831      10.893958    
    245000   3830.9052      818.30172     -72658.806      4951.3384     -67707.467      172540.81      13.470313     -67619.343      21.117108      10.95526       10.358888    
    246000   3790.2872     -317.29267     -72665.211      4898.8409     -67766.37       172555.83      13.469141     -67800.542      21.670164      10.586124      10.880426    
    247000   3788.9236      3821.2804     -72713.345      4897.0784     -67816.267      172332.29      13.486612     -67405.244      22.125325      10.675455      10.63089     
    248000   3774.236      -847.20878     -72720.424      4878.0951     -67842.329      172608.77      13.465009     -67933.602      22.822758      11.14991       10.497467    
    249000   3797.5933      3523.9225     -72637.74       4908.2837     -67729.456      172394.81      13.481721     -67350.281      21.786855      10.701673      10.616056    
    250000   3720.7297      1067.35       -72649.095      4808.9397     -67840.156      172525.33      13.471522     -67725.221      21.345443      10.61352       10.738307    
    251000   3802.8999     -1390.6937     -72647.465      4915.1423     -67732.322      172678.68      13.459558     -67882.208      20.089781      10.734892      10.447006    
    252000   3832.3947      1677.0959     -72784.19       4953.2636     -67830.926      172359.79      13.48446      -67650.507      22.592464      10.778313      10.697897    
    253000   3754.7849     -1272.8722     -72712.975      4852.9551     -67860.02       172484.89      13.47468      -67997.053      22.241115      10.585157      10.866251    
    254000   3828.4147      1204.3731     -72670.678      4948.1195     -67722.559      172590.82      13.46641      -67592.821      20.944021      10.651425      10.685959    
    255000   3812.4894      1117.3187     -72747.649      4927.5365     -67820.113      172357.65      13.484627     -67699.915      21.681623      10.846939      10.481072    
    256000   3833.2109     -436.59923     -72589.373      4954.3185     -67635.054      172770.19      13.452429     -67682.135      25.088337      10.952545      11.203439    
    257000   3776.8656     -668.22449     -72689.189      4881.4937     -67807.695      172603.19      13.465445     -67879.683      21.749251      10.869306      10.556153    
    258000   3817.7454      823.78598     -72685.551      4934.3298     -67751.221      172485.24      13.474653     -67662.535      21.043609      10.76894       10.426757    
    259000   3788.2593     -1396.2677     -72727.1        4896.2198     -67830.88       172548.41      13.46972      -67981.253      22.517545      10.597884      10.97177     
    260000   3783.9567     -415.13543     -72632.828      4890.6588     -67742.169      172692.75      13.458461     -67786.915      21.386681      10.870826      10.475745    
    261000   3826.478       680.51262     -72749.539      4945.6164     -67803.923      172435.59      13.478532     -67730.682      22.219072      10.853524      10.532494    
    262000   3810.3937     -444.97398     -72631.869      4924.8279     -67707.041      172605.2       13.465288     -67754.979      21.130993      10.697301      10.625874    
    263000   3762.9279      158.64091     -72674.568      4863.4797     -67811.088      172550.84      13.46953      -67794.003      21.631026      11.033244      10.265358    
    264000   3763.232      -5579.7917     -72671.029      4863.8727     -67807.156      172964.2       13.43734      -68409.527      21.581139      10.722848      10.866513    
    265000   3804.0922      4899.4465     -72713.521      4916.6833     -67796.838      172118.23      13.503385     -67270.501      22.314956      10.833594      10.555878    
    266000   3713.0876     -3569.8811     -72589.076      4799.0625     -67790.014      172926.98      13.440232     -68175.32       20.712687      10.758195      10.523525    
    267000   3816.8562      1835.6738     -72735.472      4933.1805     -67802.291      172370.5       13.483623     -67604.8        23.824204      11.054963      10.706046    
    268000   3805.4587      1029.2287     -72667.728      4918.4496     -67749.279      172480.58      13.475017     -67638.478      20.974292      10.592858      10.630529    
    269000   3790.3469     -3085.4653     -72681.507      4898.918      -67782.589      172759.91      13.453229     -68115.289      22.343703      11.060376      10.507594    
    270000   3839.1193      1991.0403     -72694.305      4961.9549     -67732.35       172474.17      13.475518     -67518.015      22.036986      10.841503      10.598071    
    271000   3778.9003      2481.5501     -72646.218      4884.1235     -67762.095      172387.28      13.48231      -67495.09       19.675623      10.633302      10.316574    
    272000   3779.6109     -2227.8397     -72715.407      4885.0419     -67830.365      172683.49      13.459183     -68070.483      22.284285      10.949692      10.66209     
    273000   3791.0742     -1884.4483     -72656.382      4899.858      -67756.524      172759.34      13.453274     -67959.72       21.347867      10.702705      10.793285    
    274000   3802.5643     -121.67011     -72583.457      4914.7086     -67668.748      172641.69      13.462442     -67681.859      20.027313      10.754549      10.434667    
    275000   3813.9951      1779.4423     -72710.384      4929.4826     -67780.902      172431.55      13.478849     -67589.392      22.27155       10.851486      10.623908    
    276000   3812.8003     -2801.0421     -72603.296      4927.9384     -67675.358      172936.94      13.439458     -67977.699      20.797275      10.588052      10.898886    
    277000   3781.9513      3165.0008     -72646.858      4888.0669     -67758.791      172491.98      13.474127     -67418.044      23.392953      11.049259      10.659903    
    278000   3793.2531      834.2674      -72733.519      4902.6742     -67830.845      172448.58      13.477517     -67741.05       22.537069      11.046035      10.466857    
    279000   3853.8321      1300.1327     -72643.748      4980.9708     -67662.778      172687.9       13.458839     -67522.645      20.182742      10.557123      10.685621    
    280000   3780.6301     -448.44534     -72672.156      4886.3592     -67785.797      172518.44      13.47206      -67834.084      22.235022      10.640745      10.849087    
    281000   3788.415      -1287.1907     -72711.451      4896.421      -67815.03       172558.85      13.468905     -67953.664      23.166538      10.93706       10.713229    
    282000   3844.8819      587.96127     -72626.857      4969.4029     -67657.454      172621.85      13.46399      -67594.106      20.580187      10.954935      10.291249    
    283000   3782.263      -1536.3381     -72721.751      4888.4698     -67833.282      172617.3       13.464344     -67998.806      21.944518      10.747143      10.742699    
    284000   3836.4356      2792.2562     -72692.441      4958.4864     -67733.955      172375.54      13.483228     -67433.541      22.105971      10.76025       10.685829    
    285000   3807.1545     -1555.2334     -72669.681      4920.6413     -67749.039      172728.73      13.455658     -67916.707      22.355759      10.918607      10.671207    
    286000   3785.0723      5528.2007     -72724.596      4892.1007     -67832.495      172012.8       13.511662     -67238.977      21.372072      10.712186      10.377148    
    287000   3811.3375     -1943.7312     -72727.59       4926.0477     -67801.542      172631.97      13.4632       -68010.976      21.509387      10.804761      10.627431    
    288000   3811.9907     -1830.5732     -72677.988      4926.8919     -67751.096      172699.22      13.457957     -67948.414      21.372142      10.550412      10.939187    
    289000   3780.2557      3681.1499     -72610.797      4885.8753     -67724.921      172252.8       13.492836     -67329.154      22.26725       10.863779      10.474157    
    290000   3778.5839      251.61953     -72677.83       4883.7146     -67794.115      172483.82      13.474764     -67767.027      22.054325      10.915187      10.479482    
    291000   3814.7754      1778.7925     -72677.998      4930.4911     -67747.507      172476.97      13.475299     -67556.017      21.394706      10.6538        10.698684    
    292000   3770.7181      2663.9272     -72660.493      4873.5482     -67786.945      172418.63      13.479859     -67500.266      21.472972      10.68657       10.553735    
    293000   3817.039      -6510.2447     -72755.546      4933.4167     -67822.129      172906.38      13.441833     -68524.712      21.806347      10.863077      10.688042    
    294000   3833.673       4484.8341     -72585.577      4954.9157     -67630.662      172457.26      13.476839     -67147.917      22.566667      10.874025      10.663154    
    295000   3836.0201     -1889.2116     -72752.663      4957.9493     -67794.714      172627.75      13.463529     -67998.268      21.20835       10.843609      10.511297    
    296000   3792.4236     -2158.5153     -72682.663      4901.602      -67781.061      172685.17      13.459052     -68013.709      21.721185      10.926786      10.546601    
    297000   3836.7998      4884.3889     -72642.549      4958.957      -67683.592      172291.16      13.489832     -67158.346      21.595571      10.433482      10.893943    
    298000   3750.7761     -456.64716     -72799.868      4847.7737     -67952.094      172330.17      13.486778     -68001.211      22.517817      10.854813      10.635079    
    299000   3798.897      -3206.9316     -72669.359      4909.9687     -67759.39       172826.78      13.448024     -68105.322      21.750405      10.846402      10.708531    
    300000   3841.0042      2524.7147     -72653.008      4964.3911     -67688.616      172451.81      13.477265     -67416.866      22.535995      10.690173      10.798223    
    301000   3738.5522     -859.58437     -72731.871      4831.9748     -67899.897      172495.69      13.473837     -67992.442      22.157081      11.053292      10.435342    
    302000   3811.9406      1851.7001     -72664.733      4926.8272     -67737.905      172498.14      13.473645     -67538.542      21.218587      10.599962      10.739446    
    303000   3838.997      -2875.934      -72619.366      4961.7969     -67657.569      172869.94      13.444667     -67967.874      22.247568      10.977949      10.724386    
    304000   3846.4049     -1884.7518     -72655.056      4971.3714     -67683.684      172695.17      13.458273     -67886.838      22.152104      10.895421      10.669224    
    305000   3807.7775     -411.35697     -72726.429      4921.4465     -67804.982      172511.6       13.472594     -67849.274      21.485993      10.599871      10.81268     
    306000   3745.9019      5483.4025     -72667.525      4841.474      -67826.051      172270.39      13.491458     -67236.461      21.910318      10.658625      10.678212    
    307000   3826.4679     -3053.693      -72598.074      4945.6034     -67652.471      172949.62      13.438472     -67982.107      21.090794      11.064065      10.458904    
    308000   3833.834       798.20922     -72744.121      4955.1239     -67788.997      172459.83      13.476638     -67703.077      22.092246      10.686477      10.857242    
    309000   3751.2644      426.67327     -72611.584      4848.4049     -67763.18       172579.59      13.467286     -67717.22       22.359038      10.777297      10.821022    
    310000   3807.9635     -2601.7672     -72619.264      4921.6869     -67697.577      172834.76      13.447403     -67978.243      20.446406      10.872538      10.429199    
    311000   3818.263       3801.9175     -72640.495      4934.9988     -67705.496      172333.13      13.486546     -67296.555      21.774503      10.610433      10.732561    
    312000   3754.8198     -1106.5935     -72730.996      4853.0002     -67877.995      172471.37      13.475736     -67997.118      22.664624      10.779821      10.797536    
    313000   3799.8897     -1095.0381     -72630.527      4911.2518     -67719.275      172662.75      13.4608       -67837.285      20.877551      10.750138      10.57506     
    314000   3819.0045      5967.7964     -72640.86       4935.9571     -67704.903      172192.18      13.497586     -67063.521      20.685133      10.662749      10.429896    
    315000   3754.8968     -3798.9577     -72755.396      4853.0997     -67902.297      172791.85      13.450743     -68312.007      23.180138      10.915597      10.831853    
    316000   3795.3503     -1380.5794     -72680.826      4905.3847     -67775.441      172663.68      13.460728     -67924.224      21.615376      10.800729      10.724372    
    317000   3832.5989      267.35577     -72642.2        4953.5275     -67688.672      172601.93      13.465543     -67659.87       21.958653      10.820738      10.621115    
    318000   3834.9857      2787.504      -72661.661      4956.6124     -67705.049      172358.61      13.484552     -67405.175      23.32151       11.031311      10.65964     
    319000   3789.8414     -5653.2964     -72741.567      4898.2646     -67843.302      172871.61      13.444537     -68453.282      20.395301      10.724751      10.692624    
    320000   3814.7656      2593.5339     -72613.328      4930.4785     -67682.849      172404.01      13.481002     -67403.769      23.026643      10.712797      10.983837    
    321000   3803.7102      1106.0373     -72693.278      4916.1896     -67777.089      172395.79      13.481645     -67658.078      22.304564      10.766364      10.736749    
    322000   3797.608       855.5665      -72712.433      4908.3027     -67804.13       172484.95      13.474676     -67712.022      20.608714      10.839156      10.387832    
    323000   3787.1292      1064.8188     -72615.993      4894.7592     -67721.234      172591.47      13.466359     -67606.529      22.622109      10.735467      10.906338    
    324000   3802.6431     -588.06932     -72724.168      4914.8104     -67809.357      172473.71      13.475554     -67872.663      22.070446      10.707373      10.833193    
    325000   3796.683      -699.13322     -72740.142      4907.1072     -67833.035      172517.25      13.472153     -67908.315      21.879202      10.913629      10.610647    
    326000   3808.9391      7336.524      -72760.721      4922.9478     -67837.774      172001.22      13.512571     -67050.163      21.9093        10.587009      10.704165    
    327000   3732.8298     -4106.6481     -72691.751      4824.5787     -67867.172      172885.06      13.443491     -68310.306      22.195831      10.891415      10.76103     
    328000   3756.4044      3117.9775     -72700.158      4855.0482     -67845.11       172282.5       13.49051      -67509.833      21.660042      10.745542      10.569163    
    329000   3834.4368      773.23324     -72609.406      4955.9029     -67653.503      172612.47      13.464721     -67570.198      22.180706      10.768078      10.825854    
    330000   3847.9439      286.13098     -72665.938      4973.3605     -67692.578      172633.51      13.46308      -67661.747      20.090282      10.788949      10.412039    
    331000   3778.6747      4388.62       -72668.063      4883.8319     -67784.231      172221.79      13.495265     -67312.488      22.187444      10.591067      10.88136     
    332000   3804.6405     -3580.0195     -72611.258      4917.392      -67693.866      172852.17      13.446049     -68080.099      23.317387      11.014749      10.899471    
    333000   3830.6564      4475.352      -72752.438      4951.0169     -67801.421      172237.04      13.49407      -67320.313      21.087762      10.673591      10.558449    
    334000   3763.3        -10120.141     -72694.332      4863.9605     -67830.371      173311.74      13.410394     -68925.094      21.55169       11.238159      10.465318    
    335000   3806.7997      5636.4727     -72701.045      4920.1827     -67780.862      172188.06      13.497909     -67175.103      21.886076      10.687886      10.736102    
    336000   3836.1478     -2339.4444     -72721.172      4958.1144     -67763.058      172737.3       13.45499      -68015.283      22.181718      10.981506      10.658825    
    337000   3776.6765      723.36086     -72701.825      4881.2494     -67820.576      172467.67      13.476026     -67742.709      20.118238      10.671306      10.445825    
    338000   3782.5855     -1279.658      -72674.121      4888.8866     -67785.234      172620.88      13.464065     -67923.106      21.919039      10.731117      10.840827    
    339000   3809.5115      3113.1792     -72677.454      4923.6877     -67753.767      172369.74      13.483682     -67418.836      23.239347      10.888798      10.770298    
    340000   3750.96       -1593.6474     -72579.257      4848.0115     -67731.245      172756.5       13.453495     -67903.082      20.767781      10.601623      10.840778    
    341000   3756.8053     -339.49016     -72696.718      4855.5664     -67841.152      172506.21      13.473015     -67877.704      21.686358      10.834489      10.571216    
    342000   3807.3711     -87.11763      -72645.753      4920.9213     -67724.832      172720.72      13.456283     -67734.223      22.695228      10.852754      10.853398    
    343000   3830.8819     -1266.2818     -72580.749      4951.3083     -67629.44       172916.03      13.441083     -67766.105      21.018628      10.604393      10.999901    
    344000   3791.9733     -202.46512     -72651.639      4901.02       -67750.619      172503.98      13.473189     -67772.418      20.717113      10.772385      10.46097     
    345000   3821.1193      1432.6625     -72740.951      4938.6904     -67802.261      172362.91      13.484216     -67648.135      21.989695      10.764997      10.714519    
    346000   3789.0822     -2433.4036     -72692.064      4897.2833     -67794.781      172737.41      13.454982     -68057.136      21.890037      10.923967      10.67765     
    347000   3875.2106      2440.4453     -72679.595      5008.6019     -67670.993      172411.62      13.480406     -67408.374      22.831431      10.770129      10.901044    
    348000   3802.9746     -2127.93       -72651.491      4915.2389     -67736.252      172708.99      13.457196     -67965.635      22.327355      10.914147      10.723003    
    349000   3749.0878     -755.05734     -72687.871      4845.5918     -67842.279      172465.49      13.476196     -67923.557      20.954585      10.736627      10.514672    
    350000   3802.1901     -1597.0309     -72650.413      4914.225      -67736.188      172759.8       13.453238     -67908.393      22.479881      11.041871      10.746181    
    351000   3807.2854      2393.5148     -72696.856      4920.8105     -67776.045      172419.65      13.479779     -67518.465      22.282381      10.725651      10.818742    
    352000   3777.2429     -3988.4083     -72595.411      4881.9814     -67713.43       172932.68      13.439789     -68143.923      20.506267      10.856327      10.542507    
    353000   3786.0373      894.66884     -72689.329      4893.3479     -67795.981      172469.36      13.475893     -67699.673      22.967288      10.909461      10.831204    
    354000   3776.9116     -35.968181     -72608.602      4881.5532     -67727.049      172660.61      13.460967     -67730.925      22.373555      10.867858      10.740047    
    355000   3743.8927      2934.0836     -72660.772      4838.8772     -67821.894      172385.93      13.482416     -67506.202      20.807125      10.711203      10.638103    
    356000   3793.4823     -3405.1009     -72578.644      4902.9704     -67675.673      172979.96      13.436116     -68043.307      23.138007      11.108557      10.750452    
    357000   3816.9651      1941.2132     -72627.445      4933.3212     -67694.123      172540.21      13.47036      -67485.072      21.692151      10.672125      10.798552    
    358000   3844.7395      218.09142     -72759.85       4969.2188     -67790.631      172509.24      13.472779     -67767.149      21.845695      10.961739      10.54624     
    359000   3826.8965      3423.2631     -72650.809      4946.1573     -67704.652      172456.97      13.476862     -67336.175      21.721706      10.556473      11.032644    
    360000   3785.7113     -2046.3839     -72644.245      4892.9265     -67751.319      172783.29      13.451409     -67972.007      21.617167      10.79497       10.800842    
    361000   3847.139      -742.96591     -72710.139      4972.3201     -67737.819      172757.34      13.453429     -67817.93       21.481478      10.951206      10.630922    
    362000   3800.4034     -1359.9922     -72637.211      4911.9157     -67725.295      172649.76      13.461813     -67871.847      24.121269      10.987854      10.987112    
    363000   3796.6168      4236.4871     -72662.766      4907.0216     -67755.744      172272.09      13.491325     -67300.221      21.182121      10.746163      10.59558     
    364000   3729.011      -5155.5883     -72671.93       4819.643      -67852.287      172877.4       13.444086     -68408.583      22.471658      11.031978      10.762928    
    365000   3797.1441      1493.7824     -72597.734      4907.7031     -67690.031      172553.83      13.469297     -67529.151      23.05534       10.772345      11.024771    
    366000   3766.0128      1976.4125     -72607.046      4867.4668     -67739.579      172448.98      13.477487     -67526.849      20.523381      10.792414      10.485023    
    367000   3763.8623      2562.3361     -72659.906      4864.6873     -67795.218      172433.75      13.478677     -67519.448      22.005238      10.903895      10.591746    
    368000   3818.1242      878.78901     -72620.015      4934.8193     -67685.196      172599.4       13.465741     -67590.525      22.505682      10.751473      10.933392    
    369000   3779.8112      3430.7261     -72640.211      4885.3008     -67754.91       172392.37      13.481912     -67385.768      20.828218      10.899085      10.430852    
    370000   3772.8682      2427.451      -72741.291      4876.3272     -67864.964      172257.99      13.49243      -67603.977      23.916656      11.054592      10.710585    
    371000   3837.7293      112.18702     -72682.103      4960.1584     -67721.944      172557.18      13.469035     -67709.862      21.358192      10.619886      10.806542    
    372000   3785.3643     -793.93155     -72749.16       4892.478      -67856.682      172576.08      13.46756      -67942.199      21.291816      10.865032      10.670534    
    373000   3765.0161      5504.6045     -72613.538      4866.1786     -67747.359      172283.91      13.490399     -67155.443      23.511153      11.085898      10.585224    
    374000   3778.0863     -1276.3061     -72713.154      4883.0715     -67830.082      172548.05      13.469748     -67967.535      22.287189      10.755084      10.852076    
    375000   3825.1591     -1273.0433     -72693.077      4943.9118     -67749.165      172654.08      13.461476     -67886.351      22.045281      10.832404      10.776781    
    376000   3729.0272      63.817305     -72676.266      4819.6639     -67856.602      172567.2       13.468253     -67849.728      21.945908      10.770823      10.738717    
    377000   3838.4943     -1977.277      -72554.972      4961.1471     -67593.825      172953.82      13.438146     -67807.271      22.092653      10.903437      10.936432    
    378000   3838.9861      1005.4031     -72703.356      4961.7827     -67741.573      172446.84      13.477654     -67633.359      20.585469      10.928913      10.300465    
    379000   3722.8258      1446.7566     -72642.034      4811.6488     -67830.386      172508.6       13.472828     -67674.611      22.775751      10.81901       10.801128    
    380000   3792.2894     -1496.4862     -72689.192      4901.4286     -67787.763      172636.3       13.462863     -67949.011      20.112468      10.660883      10.73829     
    381000   3813.9119      2882.6896     -72608.639      4929.375      -67679.264      172538.69      13.470479     -67368.827      20.956612      10.758303      10.609495    
    382000   3810.0732     -2426.3222     -72690.369      4924.4137     -67765.955      172766.26      13.452735     -68027.591      22.246336      10.788917      10.894627    
    383000   3779.7553      5353.1968     -72747.911      4885.2286     -67862.682      172075.62      13.506729     -67287.743      22.129502      10.813431      10.62511     
    384000   3795.1154     -2467.1264     -72683.98       4905.0811     -67778.899      172680.7       13.459401     -68044.803      22.448431      10.997022      10.683726    
    385000   3836.6912     -315.33547     -72604.904      4958.8166     -67646.088      172711.92      13.456968     -67680.08       23.596755      10.961125      10.980168    
    386000   3841.3101      3949.4839     -72720.42       4964.7864     -67755.634      172280.67      13.490653     -67330.949      22.08033       11.038871      10.400945    
    387000   3781.3045     -1042.6319     -72729.48       4887.2309     -67842.249      172621.86      13.463988     -67954.584      21.016723      10.758057      10.661543    
    388000   3827.171      -1132.4439     -72615.107      4946.512      -67668.595      172770.53      13.452402     -67790.712      21.827896      10.787608      10.907789    
    389000   3791.1028     -275.86853     -72738.386      4899.895      -67838.491      172477.39      13.475266     -67868.189      23.004384      11.074063      10.664193    
    390000   3798.3198      2204.049      -72714.718      4909.2228     -67805.496      172305.67      13.488696     -67568.462      20.212702      10.590819      10.555381    
    391000   3796.7912     -1216.4294     -72699.583      4907.247      -67792.336      172726.24      13.455852     -67923.476      22.194904      10.806988      10.938315    
    392000   3788.2194     -284.17995     -72679.722      4896.1682     -67783.554      172525.32      13.471522     -67814.155      21.32875       10.85509       10.50459     
    393000   3798.5957      4353.4595     -72796.773      4909.5793     -67887.193      171973.14      13.514778     -67419.905      22.957395      10.979273      10.514464    
    394000   3849.3623     -3683.6413     -72691.429      4975.1938     -67716.235      172805.57      13.449675     -68113.541      21.45752       10.745396      10.87406     
    395000   3772.7536      1367.4055     -72719.701      4876.1791     -67843.522      172423.49      13.479479     -67696.364      21.507185      10.925522      10.44617     
    396000   3783.3071      517.99315     -72606.055      4889.8192     -67716.236      172714.43      13.456773     -67660.396      23.096583      10.861496      11.085084    
    397000   3843.2865      2116.9575     -72721.07       4967.3409     -67753.73       172341.88      13.485861     -67526.014      22.730875      11.000166      10.595648    
    398000   3769.004      -2573.3595     -72674.473      4871.3328     -67803.14       172708.92      13.457202     -68080.539      21.375725      10.812045      10.70814     
    399000   3812.4329      663.29617     -72666.258      4927.4635     -67738.794      172469.12      13.475913     -67667.392      22.022855      10.743928      10.86551     
    400000   3795.7894      357.12986     -72668.276      4905.9523     -67762.324      172518.14      13.472084     -67723.869      23.272158      11.174132      10.592278    
    401000   3778.2267     -3135.3684     -72621.192      4883.253      -67737.939      172813.77      13.449036     -68076.125      21.109279      10.566149      11.027299    
    402000   3783.4068     -285.27172     -72661.572      4889.948      -67771.624      172656.35      13.461299     -67802.366      21.899379      10.98416       10.699636    
    403000   3790.9545      4587.7142     -72579.961      4899.7033     -67680.258      172351.65      13.485097     -67186.742      23.507438      10.788526      10.999245    
    404000   3821.2274     -4067.3601     -72672.194      4938.8302     -67733.364      172931.99      13.439843     -68172.377      20.703979      10.754389      10.805482    
    405000   3798.3761     -110.33258     -72670.475      4909.2955     -67761.179      172675.58      13.459799     -67773.071      22.042442      10.997916      10.671357    
    406000   3760.1581      533.85179     -72718.399      4859.8998     -67858.5        172381.21      13.482785     -67801.062      22.807591      10.898139      10.671146    
    407000   3849.3886      3174.3542     -72684.776      4975.2277     -67709.548      172340.36      13.485981     -67368.094      20.965617      10.580124      10.862995    
    408000   3821.4238     -830.06518     -72722.736      4939.084      -67783.652      172652.04      13.461635     -67873.1        21.488136      10.976043      10.542323    
    409000   3783.0079     -883.17934     -72626.755      4889.4325     -67737.322      172690.61      13.458628     -67832.516      20.503994      10.844563      10.525221    
    410000   3758.4207      75.95793      -72616.984      4857.6542     -67759.329      172587.63      13.466659     -67751.147      23.844943      10.761773      11.287435    
    411000   3809.1068      1526.478      -72821.704      4923.1646     -67898.54       172259.99      13.492273     -67734.418      21.42931       10.802892      10.588816    
    412000   3761.8583      569.04702     -72743.72       4862.0972     -67881.623      172278.42      13.490829     -67820.435      21.879055      10.789146      10.649068    
    413000   3799.4353      1108.7653     -72648.964      4910.6644     -67738.3        172614.03      13.464599     -67618.845      22.35267       11.020162      10.668074    
    414000   3819.1857     -1531.7963     -72751.524      4936.1913     -67815.332      172558.58      13.468926     -67980.311      21.504996      10.840249      10.670282    
    415000   3776.0491      1176.052      -72613.597      4880.4385     -67733.158      172547.57      13.469785     -67606.503      21.734693      11.029972      10.483       
    416000   3778.1774      1151.7828     -72698.26       4883.1893     -67815.071      172548.35      13.469725     -67691.028      22.570516      10.680821      11.16416     
    417000   3814.7184     -389.22182     -72672.439      4930.4175     -67742.022      172551.5       13.469479     -67783.94       22.806376      11.132748      10.587131    
    418000   3830.4218     -236.51181     -72597.004      4950.7137     -67646.291      172730.14      13.455548     -67671.789      21.185804      10.732767      10.817593    
    419000   3779.7798     -446.26965     -72626.17       4885.2603     -67740.909      172640.83      13.462509     -67788.997      22.154124      10.755526      10.959688    
    420000   3767.8327      7041.8915     -72756.147      4869.819      -67886.328      171991.7       13.513319     -67130.389      21.680081      10.670152      10.620583    
    421000   3792.5457     -7368.5846     -72657.873      4901.7598     -67756.113      173132.52      13.424276     -68552.368      22.308126      11.112173      10.848846    
    422000   3809.2351      368.59503     -72710.859      4923.3305     -67787.529      172422.65      13.479545     -67747.862      23.509334      10.959789      10.788681    
[...]
    899000   3838.325       559.88918     -72682.463      4960.9283     -67721.535      172489.98      13.474283     -67661.257      21.917125      11.149285      10.788668    
    900000   3792.789      -1845.9871     -72659.018      4902.0743     -67756.943      172812.04      13.449172     -67956.053      20.564487      10.901666      11.008475    
    901000   3765.2058     -1544.5702     -72719.78       4866.4238     -67853.356      172620.63      13.464085     -68019.77       24.552944      11.418039      11.122045    
    902000   3830.5069      5440.9931     -72654.426      4950.8236     -67703.602      172262.1       13.492108     -67118.6        23.185952      11.116834      11.022087    
    903000   3793.9268      2987.586      -72718.636      4903.5448     -67815.091      172263.8       13.491974     -67493.87       21.211369      11.045716      10.709269    
    904000   3796.3109     -1631.6191     -72709.811      4906.6263     -67803.185      172626.98      13.463589     -67978.984      22.501892      11.207778      10.946394    
    905000   3825.3277      1235.1242     -72570.46       4944.1297     -67626.33       172612.1       13.46475      -67493.263      22.157649      10.823213      11.354162    
    906000   3815.9368     -2744.7515     -72651.076      4931.9922     -67719.084      172856.82      13.445687     -68015.212      22.35452       11.210228      11.034886    
    907000   3779.0838      1532.197      -72793.873      4884.3607     -67909.513      172214.91      13.495805     -67744.82       21.589388      10.930039      10.837847    
    908000   3733.8776      3362.3978     -72687.225      4825.933      -67861.292      172285.55      13.490271     -67499.726      22.232765      10.758276      11.200725    
    909000   3778.8598     -2740.4425     -72672.254      4884.0712     -67788.183      172804.59      13.449751     -68083.757      21.415237      11.121222      10.862552    
    910000   3868.9718     -538.22942     -72707.09       5000.5384     -67706.552      172603.16      13.465447     -67764.535      22.907923      11.2135        10.946911    
    911000   3774.8033      2463.2133     -72701.871      4878.8283     -67823.043      172325.5       13.487143     -67558.107      20.598893      10.825058      10.796155    
    912000   3845.4539     -757.30765     -72724.872      4970.1422     -67754.73       172616.67      13.464394     -67836.322      21.845874      11.148699      10.865137    
    913000   3833.0353      215.22117     -72692.27       4954.0915     -67738.178      172564.09      13.468496     -67714.998      21.078031      11.116959      10.798084    
    914000   3810.0456     -2078.7168     -72732.944      4924.378      -67808.566      172719.19      13.456401     -68032.658      20.676785      10.651631      11.256149    
    915000   3800.0075      927.66506     -72738.771      4911.404      -67827.367      172386.35      13.482383     -67727.555      22.749769      11.258371      10.870469    
    916000   3779.7416      1758.5515     -72586.921      4885.2109     -67701.711      172585.04      13.466861     -67512.281      22.007913      11.006996      11.016116    
    917000   3818.4949     -2265.6314     -72648.843      4935.2985     -67713.544      172743.41      13.454515     -67957.82       21.993655      10.975439      11.173802    
    918000   3832.5287      3949.0248     -72645.041      4953.4368     -67691.605      172398.48      13.481434     -67266.679      22.816901      11.160359      11.021385    
    919000   3795.3778     -5658.1646     -72627.763      4905.4203     -67722.343      173012.2       13.433612     -68333.344      21.128187      11.202976      10.772715    
    920000   3780.5936      749.05563     -72676.841      4886.3121     -67790.529      172462.71      13.476413     -67709.899      22.079137      11.069314      10.968902    
    921000   3797.4539     -2487.04       -72637.966      4908.1036     -67729.863      172818.41      13.448675     -67998.127      22.211795      11.181371      10.967802    
    922000   3872.1486      1374.5062     -72750.32       5004.6444     -67745.676      172440.64      13.478138     -67597.739      21.725002      11.101097      10.806477    
    923000   3813.6926      1958.2209     -72772.526      4929.0916     -67843.434      172353.74      13.484934     -67632.779      22.550004      11.266869      10.787936    
    924000   3786.7516     -1668.3363     -72687.697      4894.2712     -67793.426      172747.55      13.454192     -67973.307      22.380713      10.969317      11.237943    
    925000   3763.1303      3034.5368     -72667.129      4863.7413     -67803.388      172383.41      13.482613     -67476.892      21.304949      10.963349      10.893964    
    926000   3790.5221     -1927.3052     -72690.45       4899.1443     -67791.305      172660.25      13.460995     -67999.003      23.378798      11.235708      11.103558    
    927000   3777.8203     -2041.8905     -72756.833      4882.7276     -67874.106      172653.64      13.461511     -68094.144      19.899851      11.028652      10.64304     
    928000   3753.2955      5622.3308     -72712.522      4851.0301     -67861.492      172086.39      13.505884     -67257.609      22.32338       11.0978        10.800401    
    929000   3812.9986      205.47213     -72680.565      4928.1947     -67752.37       172612.88      13.464689     -67730.233      22.980639      10.995935      11.266358    
    930000   3828.6721      1409.8353     -72659.299      4948.4522     -67710.846      172574.85      13.467656     -67558.989      21.992643      11.233534      10.78504     
    931000   3757.0763     -4222.0673     -72666.831      4855.9167     -67810.914      172823.44      13.448285     -68266.34       21.816071      11.051436      11.07408     
    932000   3783.5754      6210.5599     -72720.431      4890.166      -67830.265      172122.79      13.503027     -67163.06       22.407493      11.021521      10.84185     
    933000   3748.419      -2730.6977     -72721.693      4844.7274     -67876.966      172694.88      13.458295     -68171.302      22.592883      11.265195      10.990625    
    934000   3796.0865      1711.8549     -72683.383      4906.3363     -67777.047      172359.93      13.484449     -67592.888      21.851894      11.022471      10.923546    
    935000   3812.0806     -1188.7775     -72696.342      4927.0082     -67769.334      172544.38      13.470035     -67897.358      22.429887      11.052476      11.061069    
    936000   3742.7127      608.0548      -72724.044      4837.3521     -67886.692      172264.31      13.491934     -67821.315      22.94888       11.262302      10.797978    
    937000   3821.5414      958.13751     -72715.765      4939.2359     -67776.529      172427.74      13.479147     -67673.414      21.246086      10.843593      11.101894    
    938000   3818.0779     -944.80454     -72772.379      4934.7595     -67837.62       172447.78      13.47758      -67939.313      21.944536      11.014171      10.92123     
    939000   3799.9423      381.69376     -72577.992      4911.3198     -67666.672      172662.74      13.460801     -67625.538      23.272068      11.536229      10.71537     
    940000   3826.8891      663.16109     -72767.645      4946.1477     -67821.497      172383.51      13.482605     -67750.145      21.857758      10.943507      11.086817    
    941000   3778.0112     -1989.1788     -72710.138      4882.9744     -67827.163      172603.71      13.465405     -68041.459      21.912759      10.945778      10.998809    
    942000   3835.3896      819.17358     -72580.848      4957.1344     -67623.714      172667.66      13.460417     -67535.431      22.131712      11.234706      10.909757    
    943000   3851.3233      726.47531     -72753.749      4977.7283     -67776.02       172440.53      13.478146     -67697.831      20.532965      10.678347      11.118113    
    944000   3756.3905     -1628.0754     -72773.586      4855.0303     -67918.555      172532.46      13.470965     -68093.877      22.607857      11.208465      10.903419    
    945000   3832.985       29.804369     -72771.461      4954.0265     -67817.434      172362.3       13.484264     -67814.228      22.363178      11.083948      10.974714    
    946000   3786.3037     -2051.4869     -72761.394      4893.6922     -67867.702      172559.09      13.468886     -68088.653      21.438288      10.926452      10.996807    
    947000   3806.5508      3132.7489     -72690.081      4919.861      -67770.22       172321.16      13.487483     -67433.279      20.757827      11.113365      10.581575    
    948000   3737.1092     -430.5664      -72677.89       4830.1097     -67847.78       172521.37      13.471831     -67894.144      23.207956      11.071815      11.248243    
    949000   3776.7679      2435.5789     -72695.295      4881.3675     -67813.928      172350.94      13.485153     -67551.925      22.298422      10.856458      11.135529    
    950000   3827.026      -8999.2632     -72636.573      4946.3246     -67690.248      173382.87      13.404892     -68664.122      20.447971      11.245282      10.812246    
    951000   3827.0818     -1485.2406     -72625.877      4946.3968     -67679.48       172760.38      13.453193     -67839.632      22.613512      11.221504      11.067275    
    952000   3796.181      -284.91351     -72685.362      4906.4583     -67778.904      172559.09      13.468886     -67809.59       21.285914      11.174956      10.630879    
    953000   3763.3441      2194.9294     -72690.873      4864.0176     -67826.856      172348.29      13.48536      -67590.744      22.206406      11.040858      10.994406    
    954000   3749.4416      217.14538     -72697.189      4846.0491     -67851.14       172518.26      13.472074     -67827.759      21.383927      10.931987      11.000667    
    955000   3803.9693      2134.3942     -72661.223      4916.5245     -67744.698      172437.54      13.478381     -67514.98       23.1146        11.159717      10.967675    
    956000   3776.2371      24.033986     -72685.748      4880.6814     -67805.066      172562.55      13.468616     -67802.478      22.189143      11.381658      10.726743    
    957000   3809.3409     -1349.6866     -72626.074      4923.4672     -67702.607      172828.21      13.447913     -67848.199      22.307598      11.099301      11.120644    
    958000   3837.2363      1540.1467     -72629.5        4959.5212     -67669.979      172588.41      13.466598     -67504.072      22.639606      11.070474      11.117559    
    959000   3753.2783     -54.417187     -72613.92       4851.0078     -67762.912      172767.88      13.452609     -67768.78       19.960037      11.119501      10.692423    
    960000   3792.1691     -2504.6745     -72711.284      4901.2731     -67810.011      172714.23      13.456788     -68080.014      23.830115      10.906582      11.567449    
    961000   3842.7856     -966.76933     -72674.68       4966.6935     -67707.986      172668.05      13.460387     -67812.176      21.895285      11.085229      11.001155    
    962000   3757.8485      3025.1829     -72735.258      4856.9147     -67878.343      172287.28      13.490136     -67553.035      20.90476       10.956117      10.802854    
    963000   3778.3292     -2831.5472     -72635.167      4883.3855     -67751.781      172872.96      13.444432     -68057.302      22.099204      10.948637      11.217639    
    964000   3782.9765      3269.3337     -72628.903      4889.3919     -67739.511      172387.1       13.482324     -67387.746      22.471306      11.27174       10.726098    
    965000   3793.3861     -2586.3808     -72722.679      4902.846      -67819.833      172746.44      13.454278     -68098.696      20.633921      10.928273      10.957579    
    966000   3834.2834      3609.4072     -72699.942      4955.7047     -67744.238      172319.4       13.487621     -67356.034      21.918406      11.141254      10.660604    
    967000   3800.212       2783.5451     -72698.908      4911.6683     -67787.239      172324.86      13.487193     -67487.85       21.673857      10.931641      10.944964    
    968000   3806.5787     -2479.2333     -72607.171      4919.8971     -67687.274      172957.56      13.437856     -67954.911      22.486974      11.300343      11.054682    
    969000   3782.4847      1415.9299     -72658.53       4888.7563     -67769.774      172418.6       13.479861     -67617.398      22.277222      11.003816      10.940311    
    970000   3766.1376     -2922.3946     -72726.235      4867.6281     -67858.607      172643.39      13.462309     -68173.511      21.387684      10.979701      11.019834    
    971000   3830.591      -495.07246     -72632.571      4950.9324     -67681.639      172751.04      13.453921     -67735.019      22.416144      11.192692      10.988816    
    972000   3810.4492      1035.2954     -72714.822      4924.8996     -67789.922      172484.91      13.474678     -67678.466      21.794992      11.217622      10.735806    
    973000   3739.6511     -1133.7176     -72743.526      4833.395      -67910.131      172552.1       13.469432     -68032.231      22.203308      11.286791      10.738959    
    974000   3792.4602      3029.9301     -72694.006      4901.6494     -67792.357      172316.45      13.487851     -67466.483      22.986781      11.037048      11.055771    
    975000   3747.6798      227.64537     -72604.777      4843.7719     -67761.005      172626.85      13.463599     -67736.477      21.806431      11.143614      10.902568    
    976000   3835.4518      3310.994      -72632.389      4957.2147     -67675.174      172360.69      13.48439      -67318.981      23.160846      11.082418      10.992028    
    977000   3799.6132      345.66241     -72755.311      4910.8943     -67844.417      172456.02      13.476936     -67807.21       21.3189        11.249343      10.614746    
    978000   3798.2324     -4271.9346     -72591.62       4909.1097     -67682.51       173073.45      13.428858     -68143.982      21.202928      10.990916      11.151965    
    979000   3851.5331      4134.4667     -72749.26       4977.9994     -67771.26       172184.35      13.4982       -67326.933      22.163841      11.079279      10.812608    
    980000   3744.9713     -1978.7706     -72695.42       4840.2712     -67855.149      172596.31      13.465982     -68068.314      22.452109      11.149108      10.94408     
    981000   3798.245      -1200.8376     -72656.335      4909.1261     -67747.209      172782.46      13.451474     -67876.71       20.738602      11.087523      10.776604    
    982000   3765.6927      1355.0076     -72686.914      4867.0531     -67819.861      172401.7       13.481182     -67674.056      22.269386      10.914343      11.167769    
    983000   3779.9455     -6324.9848     -72627.88       4885.4744     -67742.405      173132.82      13.424253     -68425.889      21.321923      11.213501      10.934914    
    984000   3848.0333      3042.3998     -72711.259      4973.476      -67737.783      172380.88      13.482811     -67410.446      21.383081      11.094235      10.774606    
    985000   3792.0367      1045.3458     -72681.376      4901.102      -67780.274      172482.79      13.474844     -67667.737      23.835908      11.267256      11.03346     
    986000   3754.749      -2560.9501     -72638.068      4852.9086     -67785.159      172763.35      13.452962     -68061.308      21.515107      11.170285      10.865777    
    987000   3802.836       316.10212     -72789.279      4915.0597     -67874.219      172454.85      13.477027     -67840.195      22.162882      10.844878      11.208078    
    988000   3796.8516      597.19017     -72696.566      4907.3251     -67789.241      172506.98      13.472955     -67724.941      23.390809      11.378146      10.895359    
    989000   3781.1589     -2270.9269     -72779.267      4887.0427     -67892.225      172630.87      13.463286     -68136.912      22.172094      11.021066      11.010795    
    990000   3852.1603      2883.7591     -72663.771      4978.81       -67684.961      172472.32      13.475662     -67374.527      21.504512      11.118575      10.742842    
    991000   3781.5841      476.2098      -72672.426      4887.5923     -67784.834      172544.62      13.470016     -67733.549      22.280036      11.274314      10.75056     
    992000   3788.5597     -2581.0583     -72709.062      4896.608      -67812.454      172691.55      13.458555     -68090.654      22.313083      11.071251      10.998127    
    993000   3839.6782      2598.9341     -72689.792      4962.6773     -67727.115      172391.33      13.481993     -67447.474      22.224281      10.974043      10.99716     
    994000   3743.6084      2384.7943     -72648.486      4838.5098     -67809.976      172494.09      13.473962     -67553.223      22.34861       11.145145      10.862475    
    995000   3801.3776     -1162.73       -72721.31       4913.1748     -67808.135      172605.16      13.465291     -67933.398      21.676234      11.161527      10.800722    
    996000   3794.6726      4834.3585     -72634.65       4904.5088     -67730.141      172189.03      13.497833     -67210.583      21.82665       10.967584      10.863038    
    997000   3750.5285      1585.0376     -72698.428      4847.4537     -67850.974      172287.49      13.490119     -67680.529      23.228287      11.055281      11.103714    
    998000   3832.2391     -1209.8406     -72708.953      4953.0624     -67755.89       172716.39      13.456619     -67886.313      21.174831      11.108999      10.83377     
    999000   3772.1311      1077.9446     -72754.015      4875.3745     -67878.641      172364.24      13.484112     -67762.674      24.120132      10.853253      11.580309    
   1000000   3771.1652     -197.62232     -72645.371      4874.1262     -67771.245      172594.38      13.466132     -67792.534      22.197062      11.173587      10.868591    
   1001000   3845.5197      1726.2157     -72643.643      4970.2273     -67673.415      172514.38      13.472377     -67487.545      19.990313      10.981731      10.587551    
   1002000   3772.9876      1122.5034     -72644.781      4876.4815     -67768.3        172478.72      13.475163     -67647.459      21.677417      11.055727      10.894145    
   1002307   3800.6686      691.40595     -72753.814      4912.2584     -67841.556      172415.1       13.480135     -67767.152      20.174008      10.971894      10.671452    
Loop time of 966.755 on 40 procs for 1000000 steps with 10000 atoms

Performance: 89.371 ns/day, 0.269 hours/ns, 1034.389 timesteps/s, 10.344 Matom-step/s
95.4% CPU use with 40 MPI tasks x 1 OpenMP threads

MPI task timing breakdown:
Section |  min time  |  avg time  |  max time  |%varavg| %total
---------------------------------------------------------------
Pair    | 672.47     | 680.15     | 690.21     |  14.2 | 70.35
Neigh   | 11.523     | 11.72      | 11.872     |   2.6 |  1.21
Comm    | 163.47     | 173.37     | 182.43     |  29.0 | 17.93
Output  | 0.16332    | 0.50996    | 1.3559     |  33.9 |  0.05
Modify  | 82.74      | 85.38      | 88.472     |  15.9 |  8.83
Other   |            | 15.63      |            |       |  1.62

Nlocal:            250 ave         263 max         233 min
Histogram: 1 0 2 5 6 5 9 6 3 3
Nghost:        1478.67 ave        1495 max        1465 min
Histogram: 1 3 2 10 8 8 1 4 2 1
Neighs:        11769.6 ave       12466 max       10962 min
Histogram: 2 2 0 7 6 6 7 6 2 2

Total # of neighbors = 470786
Ave neighs/atom = 47.0786
Neighbor list builds = 24237
Dangerous builds = 0
	unfix           feq

write_data	liq_or_sol.data nocoeff
System init for write_data ...






Total wall time: 0:16:11
